level=info msg="Setting CUDA_MODULE_LOADING=LAZY. Please see https://docs.nvidia.com for more information."

     Program PWSCF v.7.3.1 starts on 26Jan2026 at  4:32:32 

     This program is part of the open-source Quantum ESPRESSO suite
     for quantum simulation of materials; please cite
         "P. Giannozzi et al., J. Phys.:Condens. Matter 21 395502 (2009);
         "P. Giannozzi et al., J. Phys.:Condens. Matter 29 465901 (2017);
         "P. Giannozzi et al., J. Chem. Phys. 152 154105 (2020);
          URL http://www.quantum-espresso.org", 
     in publications or presentations arising from this work. More details at
     http://www.quantum-espresso.org/quote

     Parallel version (MPI & OpenMP), running on       4 processor cores
     Number of MPI processes:                 1
     Threads/MPI process:                     4

     MPI processes distributed on     1 nodes
     20872 MiB available memory on the printing compute node when the environment starts
 
     Reading input from ./FullRun_20260126_1230/O_Atom_Ref/espresso.pwi
Warning: card &CELL ignored
Warning: card / ignored
Warning: card &FCP ignored
Warning: card / ignored
Warning: card &RISM ignored
Warning: card / ignored

     Current dimensions of program PWSCF are:
     Max number of different atomic species (ntypx) = 10
     Max number of k-points (npk) =  40000
     Max angular momentum in pseudopotentials (lmaxx) =  4
     file O.pbe-n-kjpaw_psl.1.0.0.UPF: wavefunction(s)  2S 2P renormalized
 
     Subspace diagonalization in iterative solution of the eigenvalue problem:
     a serial algorithm will be used

 
     G-vector sticks info
     --------------------
     sticks:   dense  smooth     PW     G-vecs:    dense   smooth      PW
     Sum       19625    9809   2449              2070343   732287   91623
 
     Using Slab Decomposition
 


     bravais-lattice index     =            0
     lattice parameter (alat)  =      22.6767  a.u.
     unit-cell volume          =   11661.1220 (a.u.)^3
     number of atoms/cell      =            1
     number of atomic types    =            1
     number of electrons       =         6.00 (up:   4.00, down:   2.00)
     number of Kohn-Sham states=            4
     kinetic-energy cutoff     =      60.0000  Ry
     charge density cutoff     =     480.0000  Ry
     scf convergence threshold =      1.0E-06
     mixing beta               =       0.1000
     number of iterations used =            8  plain     mixing
     energy convergence thresh.=      1.0E-04
     force convergence thresh. =      1.0E-03
     Exchange-correlation= SLA  PW   PBX  PBC
                           (   1   4   3   4   0   0   0)
     nstep                     =          100


     GPU acceleration is ACTIVE.  1 visible GPUs per MPI rank
     GPU-aware MPI enabled


     GPU used by master process:

        Device Number: 0
        Device name: Tesla V100-SXM2-16GB
        Compute capability : 70
        Ratio of single to double precision performance  : 2
        Memory Clock Rate (KHz): 877000
        Memory Bus Width (bits): 4096
        Peak Memory Bandwidth (GB/s): 898.05

     celldm(1)=  22.676713  celldm(2)=   0.000000  celldm(3)=   0.000000
     celldm(4)=   0.000000  celldm(5)=   0.000000  celldm(6)=   0.000000

     crystal axes: (cart. coord. in units of alat)
               a(1) = (   1.000000   0.000000   0.000000 )  
               a(2) = (   0.000000   1.000000   0.000000 )  
               a(3) = (   0.000000   0.000000   1.000000 )  

     reciprocal axes: (cart. coord. in units 2 pi/alat)
               b(1) = (  1.000000  0.000000  0.000000 )  
               b(2) = (  0.000000  1.000000  0.000000 )  
               b(3) = (  0.000000  0.000000  1.000000 )  


     PseudoPot. # 1 for O  read from file:
     ./pseudos/O.pbe-n-kjpaw_psl.1.0.0.UPF
     MD5 check sum: e99d9cef9b487d1ca56f5b95ecd0fd7a
     Pseudo is Projector augmented-wave + core cor, Zval =  6.0
     Generated using &quot;atomic&quot; code by A. Dal Corso  v.6.3
     Shape of augmentation charge: PSQ
     Using radial grid of 1095 points,  4 beta functions with: 
                l(1) =   0
                l(2) =   0
                l(3) =   1
                l(4) =   1
     Q(r) pseudized with 0 coefficients 


     atomic species   valence    mass     pseudopotential
     O                 6.00    15.99900     O ( 1.00)

     Starting magnetic structure 
     atomic species   magnetization
     O               0.000

     No symmetry found


                                    s                        frac. trans.

      isym =  1     identity                                     

 cryst.   s( 1) = (     1          0          0      )
                  (     0          1          0      )
                  (     0          0          1      )

 cart.    s( 1) = (  1.0000000  0.0000000  0.0000000 )
                  (  0.0000000  1.0000000  0.0000000 )
                  (  0.0000000  0.0000000  1.0000000 )


   Cartesian axes

     site n.     atom                  positions (alat units)
         1        O      tau(   1) = (   0.5100000   0.5191667   0.5283333  )

   Crystallographic axes

     site n.     atom                  positions (cryst. coord.)
         1        O      tau(   1) = (  0.5100000  0.5191667  0.5283333  )

     number of k points=     1
                       cart. coord. in units 2pi/alat
        k(    1) = (   0.0000000   0.0000000   0.0000000), wk =   1.0000000

                       cryst. coord.
        k(    1) = (   0.0000000   0.0000000   0.0000000), wk =   1.0000000

     Dense  grid:  2070343 G-vectors     FFT dimensions: ( 160, 160, 160)

     Smooth grid:   732287 G-vectors     FFT dimensions: ( 120, 120, 120)

     Dynamical RAM for                 wfc:       5.59 MB

     Dynamical RAM for     wfc (w. buffer):      16.76 MB

     Dynamical RAM for           str. fact:      31.59 MB

     Dynamical RAM for           local pot:       0.00 MB

     Dynamical RAM for          nlocal pot:      11.17 MB

     Dynamical RAM for                qrad:       0.50 MB

     Dynamical RAM for          rho,v,vnew:     377.05 MB

     Dynamical RAM for               rhoin:     125.68 MB

     Dynamical RAM for            rho*nmix:    1010.91 MB

     Dynamical RAM for           G-vectors:     124.05 MB

     Dynamical RAM for          h,s,v(r/c):       0.00 MB

     Dynamical RAM for          <psi|beta>:       0.00 MB

     Dynamical RAM for                 psi:      11.17 MB

     Dynamical RAM for                hpsi:      11.17 MB

     Dynamical RAM for                spsi:      11.17 MB

     Dynamical RAM for      wfcinit/wfcrot:      11.17 MB

     Dynamical RAM for           addusdens:    1421.59 MB

     Dynamical RAM for          addusforce:    1421.59 MB

     Estimated static dynamical RAM per process >     937.48 MB

     Estimated max dynamical RAM per process >       3.29 GB
     Generating pointlists ...
     new r_m :   0.4125 (alat units)  9.3541 (a.u.) for type    1

     Initial potential from superposition of free atoms

     starting charge       6.0000, renormalised to       6.0000

     negative rho (up, down):  6.523E-04 6.523E-04
     Starting wfcs are    4 randomized atomic wfcs
     Checking if some PAW data can be deallocated... 

     total cpu time spent up to now is        7.2 secs

     Self-consistent Calculation
[tb_dev] Currently allocated     5.20E-01 Mbytes, locked:    0 /   5
[tb_pin] Currently allocated     0.00E+00 Mbytes, locked:    0 /   0

     iteration #  1     ecut=    60.00 Ry     beta= 0.10
     Davidson diagonalization with overlap

---- Real-time Memory Report at c_bands before calling an iterative solver
          1246 MiB given to the printing process from OS
             0 MiB allocation reported by mallinfo(arena+hblkhd)
         20001 MiB available memory on the node where the printing process lives
     GPU memory used/free/total (MiB): 3972 / 12171 / 16144
------------------
     ethr =  1.00E-02,  avg # of iterations =  1.0

     negative rho (up, down):  6.299E-04 6.029E-04

     total cpu time spent up to now is        8.7 secs

     total energy              =     -41.16857928 Ry
     estimated scf accuracy    <       0.14117025 Ry

     total magnetization       =     2.00 Bohr mag/cell
     absolute magnetization    =     2.00 Bohr mag/cell
[tb_dev] Currently allocated     7.63E-06 Mbytes, locked:    0 /   2
[tb_pin] Currently allocated     0.00E+00 Mbytes, locked:    0 /   0

     iteration #  2     ecut=    60.00 Ry     beta= 0.10
     Davidson diagonalization with overlap

---- Real-time Memory Report at c_bands before calling an iterative solver
          1432 MiB given to the printing process from OS
             0 MiB allocation reported by mallinfo(arena+hblkhd)
         19820 MiB available memory on the node where the printing process lives
     GPU memory used/free/total (MiB): 4340 / 11803 / 16144
------------------
     ethr =  2.35E-03,  avg # of iterations =  1.0

     negative rho (up, down):  8.367E-04 1.371E-03

     total cpu time spent up to now is        9.7 secs

     total energy              =     -41.27161327 Ry
     estimated scf accuracy    <       0.11773749 Ry

     total magnetization       =     2.00 Bohr mag/cell
     absolute magnetization    =     2.00 Bohr mag/cell
[tb_dev] Currently allocated     7.63E-06 Mbytes, locked:    0 /   2
[tb_pin] Currently allocated     0.00E+00 Mbytes, locked:    0 /   0

     iteration #  3     ecut=    60.00 Ry     beta= 0.10
     Davidson diagonalization with overlap

---- Real-time Memory Report at c_bands before calling an iterative solver
          1500 MiB given to the printing process from OS
             0 MiB allocation reported by mallinfo(arena+hblkhd)
         19749 MiB available memory on the node where the printing process lives
     GPU memory used/free/total (MiB): 4340 / 11803 / 16144
------------------
     ethr =  1.96E-03,  avg # of iterations =  1.0

     negative rho (up, down):  9.605E-04 1.695E-03

     total cpu time spent up to now is       10.9 secs

     total energy              =     -41.28559514 Ry
     estimated scf accuracy    <       0.00621569 Ry

     total magnetization       =     2.00 Bohr mag/cell
     absolute magnetization    =     2.00 Bohr mag/cell
[tb_dev] Currently allocated     7.63E-06 Mbytes, locked:    0 /   2
[tb_pin] Currently allocated     0.00E+00 Mbytes, locked:    0 /   0

     iteration #  4     ecut=    60.00 Ry     beta= 0.10
     Davidson diagonalization with overlap

---- Real-time Memory Report at c_bands before calling an iterative solver
          1568 MiB given to the printing process from OS
             0 MiB allocation reported by mallinfo(arena+hblkhd)
         19682 MiB available memory on the node where the printing process lives
     GPU memory used/free/total (MiB): 4340 / 11803 / 16144
------------------
     ethr =  1.04E-04,  avg # of iterations =  7.0

     negative rho (up, down):  8.674E-04 1.511E-03

     total cpu time spent up to now is       12.1 secs

     total energy              =     -41.29457485 Ry
     estimated scf accuracy    <       0.00108091 Ry

     total magnetization       =     2.00 Bohr mag/cell
     absolute magnetization    =     2.01 Bohr mag/cell
[tb_dev] Currently allocated     7.63E-06 Mbytes, locked:    0 /   2
[tb_pin] Currently allocated     0.00E+00 Mbytes, locked:    0 /   0

     iteration #  5     ecut=    60.00 Ry     beta= 0.10
     Davidson diagonalization with overlap

---- Real-time Memory Report at c_bands before calling an iterative solver
          1702 MiB given to the printing process from OS
             0 MiB allocation reported by mallinfo(arena+hblkhd)
         19549 MiB available memory on the node where the printing process lives
     GPU memory used/free/total (MiB): 4340 / 11803 / 16144
------------------
     ethr =  1.80E-05,  avg # of iterations =  4.0

     negative rho (up, down):  8.517E-04 1.378E-03

     total cpu time spent up to now is       13.4 secs

     total energy              =     -41.29518809 Ry
     estimated scf accuracy    <       0.00151833 Ry

     total magnetization       =     2.00 Bohr mag/cell
     absolute magnetization    =     2.02 Bohr mag/cell
[tb_dev] Currently allocated     7.63E-06 Mbytes, locked:    0 /   2
[tb_pin] Currently allocated     0.00E+00 Mbytes, locked:    0 /   0

     iteration #  6     ecut=    60.00 Ry     beta= 0.10
     Davidson diagonalization with overlap

---- Real-time Memory Report at c_bands before calling an iterative solver
          1782 MiB given to the printing process from OS
             0 MiB allocation reported by mallinfo(arena+hblkhd)
         19468 MiB available memory on the node where the printing process lives
     GPU memory used/free/total (MiB): 4340 / 11803 / 16144
------------------
     ethr =  1.80E-05,  avg # of iterations =  1.0

     negative rho (up, down):  1.070E-03 1.339E-03

     total cpu time spent up to now is       14.6 secs

     total energy              =     -41.29543837 Ry
     estimated scf accuracy    <       0.00128880 Ry

     total magnetization       =     2.00 Bohr mag/cell
     absolute magnetization    =     2.02 Bohr mag/cell
[tb_dev] Currently allocated     7.63E-06 Mbytes, locked:    0 /   2
[tb_pin] Currently allocated     0.00E+00 Mbytes, locked:    0 /   0

     iteration #  7     ecut=    60.00 Ry     beta= 0.10
     Davidson diagonalization with overlap

---- Real-time Memory Report at c_bands before calling an iterative solver
          1827 MiB given to the printing process from OS
             0 MiB allocation reported by mallinfo(arena+hblkhd)
         19422 MiB available memory on the node where the printing process lives
     GPU memory used/free/total (MiB): 4340 / 11803 / 16144
------------------
     ethr =  1.80E-05,  avg # of iterations =  1.5

     negative rho (up, down):  1.119E-03 1.239E-03

     total cpu time spent up to now is       16.0 secs

     total energy              =     -41.29547019 Ry
     estimated scf accuracy    <       0.00042122 Ry

     total magnetization       =     2.00 Bohr mag/cell
     absolute magnetization    =     2.02 Bohr mag/cell
[tb_dev] Currently allocated     7.63E-06 Mbytes, locked:    0 /   2
[tb_pin] Currently allocated     0.00E+00 Mbytes, locked:    0 /   0

     iteration #  8     ecut=    60.00 Ry     beta= 0.10
     Davidson diagonalization with overlap

---- Real-time Memory Report at c_bands before calling an iterative solver
          1917 MiB given to the printing process from OS
             0 MiB allocation reported by mallinfo(arena+hblkhd)
         19332 MiB available memory on the node where the printing process lives
     GPU memory used/free/total (MiB): 4340 / 11803 / 16144
------------------
     ethr =  7.02E-06,  avg # of iterations =  1.0

     negative rho (up, down):  1.105E-03 1.130E-03

     total cpu time spent up to now is       17.4 secs

     total energy              =     -41.29546314 Ry
     estimated scf accuracy    <       0.00024072 Ry

     total magnetization       =     2.00 Bohr mag/cell
     absolute magnetization    =     2.02 Bohr mag/cell
[tb_dev] Currently allocated     7.63E-06 Mbytes, locked:    0 /   2
[tb_pin] Currently allocated     0.00E+00 Mbytes, locked:    0 /   0

     iteration #  9     ecut=    60.00 Ry     beta= 0.10
     Davidson diagonalization with overlap

---- Real-time Memory Report at c_bands before calling an iterative solver
          2006 MiB given to the printing process from OS
             0 MiB allocation reported by mallinfo(arena+hblkhd)
         19236 MiB available memory on the node where the printing process lives
     GPU memory used/free/total (MiB): 4340 / 11803 / 16144
------------------
     ethr =  4.01E-06,  avg # of iterations =  2.5

     negative rho (up, down):  1.099E-03 1.034E-03

     total cpu time spent up to now is       18.8 secs

     total energy              =     -41.29549565 Ry
     estimated scf accuracy    <       0.00012335 Ry

     total magnetization       =     2.00 Bohr mag/cell
     absolute magnetization    =     2.02 Bohr mag/cell
[tb_dev] Currently allocated     7.63E-06 Mbytes, locked:    0 /   2
[tb_pin] Currently allocated     0.00E+00 Mbytes, locked:    0 /   0

     iteration # 10     ecut=    60.00 Ry     beta= 0.10
     Davidson diagonalization with overlap

---- Real-time Memory Report at c_bands before calling an iterative solver
          2096 MiB given to the printing process from OS
             0 MiB allocation reported by mallinfo(arena+hblkhd)
         19146 MiB available memory on the node where the printing process lives
     GPU memory used/free/total (MiB): 4340 / 11803 / 16144
------------------
     ethr =  2.06E-06,  avg # of iterations =  1.0

     negative rho (up, down):  1.111E-03 9.525E-04

     total cpu time spent up to now is       20.1 secs

     total energy              =     -41.29550387 Ry
     estimated scf accuracy    <       0.00007265 Ry

     total magnetization       =     2.00 Bohr mag/cell
     absolute magnetization    =     2.02 Bohr mag/cell
[tb_dev] Currently allocated     7.63E-06 Mbytes, locked:    0 /   2
[tb_pin] Currently allocated     0.00E+00 Mbytes, locked:    0 /   0

     iteration # 11     ecut=    60.00 Ry     beta= 0.10
     Davidson diagonalization with overlap

---- Real-time Memory Report at c_bands before calling an iterative solver
          2098 MiB given to the printing process from OS
             0 MiB allocation reported by mallinfo(arena+hblkhd)
         19146 MiB available memory on the node where the printing process lives
     GPU memory used/free/total (MiB): 4340 / 11803 / 16144
------------------
     ethr =  1.21E-06,  avg # of iterations =  1.0

     negative rho (up, down):  1.106E-03 8.735E-04

     total cpu time spent up to now is       21.5 secs

     total energy              =     -41.29550990 Ry
     estimated scf accuracy    <       0.00003072 Ry

     total magnetization       =     2.00 Bohr mag/cell
     absolute magnetization    =     2.02 Bohr mag/cell
[tb_dev] Currently allocated     7.63E-06 Mbytes, locked:    0 /   2
[tb_pin] Currently allocated     0.00E+00 Mbytes, locked:    0 /   0

     iteration # 12     ecut=    60.00 Ry     beta= 0.10
     Davidson diagonalization with overlap

---- Real-time Memory Report at c_bands before calling an iterative solver
          2118 MiB given to the printing process from OS
             0 MiB allocation reported by mallinfo(arena+hblkhd)
         19123 MiB available memory on the node where the printing process lives
     GPU memory used/free/total (MiB): 4340 / 11803 / 16144
------------------
     ethr =  5.12E-07,  avg # of iterations =  2.0

     negative rho (up, down):  1.093E-03 8.047E-04

     total cpu time spent up to now is       22.8 secs

     total energy              =     -41.29551287 Ry
     estimated scf accuracy    <       0.00001707 Ry

     total magnetization       =     2.00 Bohr mag/cell
     absolute magnetization    =     2.02 Bohr mag/cell
[tb_dev] Currently allocated     7.63E-06 Mbytes, locked:    0 /   2
[tb_pin] Currently allocated     0.00E+00 Mbytes, locked:    0 /   0

     iteration # 13     ecut=    60.00 Ry     beta= 0.10
     Davidson diagonalization with overlap

---- Real-time Memory Report at c_bands before calling an iterative solver
          2120 MiB given to the printing process from OS
             0 MiB allocation reported by mallinfo(arena+hblkhd)
         19139 MiB available memory on the node where the printing process lives
     GPU memory used/free/total (MiB): 4340 / 11803 / 16144
------------------
     ethr =  2.85E-07,  avg # of iterations =  1.0

     negative rho (up, down):  1.098E-03 7.479E-04

     total cpu time spent up to now is       24.2 secs

     total energy              =     -41.29552006 Ry
     estimated scf accuracy    <       0.00001373 Ry

     total magnetization       =     2.00 Bohr mag/cell
     absolute magnetization    =     2.02 Bohr mag/cell
[tb_dev] Currently allocated     7.63E-06 Mbytes, locked:    0 /   2
[tb_pin] Currently allocated     0.00E+00 Mbytes, locked:    0 /   0

     iteration # 14     ecut=    60.00 Ry     beta= 0.10
     Davidson diagonalization with overlap

---- Real-time Memory Report at c_bands before calling an iterative solver
          2120 MiB given to the printing process from OS
             0 MiB allocation reported by mallinfo(arena+hblkhd)
         19137 MiB available memory on the node where the printing process lives
     GPU memory used/free/total (MiB): 4340 / 11803 / 16144
------------------
     ethr =  2.29E-07,  avg # of iterations =  1.5

     negative rho (up, down):  1.097E-03 6.981E-04

     total cpu time spent up to now is       25.5 secs

     total energy              =     -41.29552165 Ry
     estimated scf accuracy    <       0.00000124 Ry

     total magnetization       =     2.00 Bohr mag/cell
     absolute magnetization    =     2.02 Bohr mag/cell
[tb_dev] Currently allocated     7.63E-06 Mbytes, locked:    0 /   2
[tb_pin] Currently allocated     0.00E+00 Mbytes, locked:    0 /   0

     iteration # 15     ecut=    60.00 Ry     beta= 0.10
     Davidson diagonalization with overlap

---- Real-time Memory Report at c_bands before calling an iterative solver
          2120 MiB given to the printing process from OS
             0 MiB allocation reported by mallinfo(arena+hblkhd)
         19137 MiB available memory on the node where the printing process lives
     GPU memory used/free/total (MiB): 4340 / 11803 / 16144
------------------
     ethr =  2.06E-08,  avg # of iterations =  5.0

     negative rho (up, down):  1.095E-03 6.545E-04

     total cpu time spent up to now is       26.9 secs

     total energy              =     -41.29552327 Ry
     estimated scf accuracy    <       0.00000262 Ry

     total magnetization       =     2.00 Bohr mag/cell
     absolute magnetization    =     2.02 Bohr mag/cell
[tb_dev] Currently allocated     7.63E-06 Mbytes, locked:    0 /   2
[tb_pin] Currently allocated     0.00E+00 Mbytes, locked:    0 /   0

     iteration # 16     ecut=    60.00 Ry     beta= 0.10
     Davidson diagonalization with overlap

---- Real-time Memory Report at c_bands before calling an iterative solver
          2120 MiB given to the printing process from OS
             0 MiB allocation reported by mallinfo(arena+hblkhd)
         19137 MiB available memory on the node where the printing process lives
     GPU memory used/free/total (MiB): 4340 / 11803 / 16144
------------------
     ethr =  2.06E-08,  avg # of iterations =  1.0

     negative rho (up, down):  1.098E-03 6.198E-04

     total cpu time spent up to now is       28.2 secs

     total energy              =     -41.29552354 Ry
     estimated scf accuracy    <       0.00000279 Ry

     total magnetization       =     2.00 Bohr mag/cell
     absolute magnetization    =     2.02 Bohr mag/cell
[tb_dev] Currently allocated     7.63E-06 Mbytes, locked:    0 /   2
[tb_pin] Currently allocated     0.00E+00 Mbytes, locked:    0 /   0

     iteration # 17     ecut=    60.00 Ry     beta= 0.10
     Davidson diagonalization with overlap

---- Real-time Memory Report at c_bands before calling an iterative solver
          2120 MiB given to the printing process from OS
             0 MiB allocation reported by mallinfo(arena+hblkhd)
         19137 MiB available memory on the node where the printing process lives
     GPU memory used/free/total (MiB): 4340 / 11803 / 16144
------------------
     ethr =  2.06E-08,  avg # of iterations =  1.0

     negative rho (up, down):  1.097E-03 5.885E-04

     total cpu time spent up to now is       29.6 secs

     total energy              =     -41.29552363 Ry
     estimated scf accuracy    <       0.00000143 Ry

     total magnetization       =     2.00 Bohr mag/cell
     absolute magnetization    =     2.02 Bohr mag/cell
[tb_dev] Currently allocated     7.63E-06 Mbytes, locked:    0 /   2
[tb_pin] Currently allocated     0.00E+00 Mbytes, locked:    0 /   0

     iteration # 18     ecut=    60.00 Ry     beta= 0.10
     Davidson diagonalization with overlap

---- Real-time Memory Report at c_bands before calling an iterative solver
          2120 MiB given to the printing process from OS
             0 MiB allocation reported by mallinfo(arena+hblkhd)
         19124 MiB available memory on the node where the printing process lives
     GPU memory used/free/total (MiB): 4340 / 11803 / 16144
------------------
     ethr =  2.06E-08,  avg # of iterations =  4.5

     negative rho (up, down):  1.099E-03 5.622E-04

     total cpu time spent up to now is       31.0 secs

     total energy              =     -41.29552500 Ry
     estimated scf accuracy    <       0.00000123 Ry

     total magnetization       =     2.00 Bohr mag/cell
     absolute magnetization    =     2.02 Bohr mag/cell
[tb_dev] Currently allocated     7.63E-06 Mbytes, locked:    0 /   2
[tb_pin] Currently allocated     0.00E+00 Mbytes, locked:    0 /   0

     iteration # 19     ecut=    60.00 Ry     beta= 0.10
     Davidson diagonalization with overlap

---- Real-time Memory Report at c_bands before calling an iterative solver
          2121 MiB given to the printing process from OS
             0 MiB allocation reported by mallinfo(arena+hblkhd)
         19139 MiB available memory on the node where the printing process lives
     GPU memory used/free/total (MiB): 4340 / 11803 / 16144
------------------
     ethr =  2.05E-08,  avg # of iterations =  2.5

     negative rho (up, down):  1.101E-03 5.368E-04

     total cpu time spent up to now is       32.3 secs

     total energy              =     -41.29552441 Ry
     estimated scf accuracy    <       0.00000236 Ry

     total magnetization       =     2.00 Bohr mag/cell
     absolute magnetization    =     2.02 Bohr mag/cell
[tb_dev] Currently allocated     7.63E-06 Mbytes, locked:    0 /   2
[tb_pin] Currently allocated     0.00E+00 Mbytes, locked:    0 /   0

     iteration # 20     ecut=    60.00 Ry     beta= 0.10
     Davidson diagonalization with overlap

---- Real-time Memory Report at c_bands before calling an iterative solver
          2121 MiB given to the printing process from OS
             0 MiB allocation reported by mallinfo(arena+hblkhd)
         19126 MiB available memory on the node where the printing process lives
     GPU memory used/free/total (MiB): 4340 / 11803 / 16144
------------------
     ethr =  2.05E-08,  avg # of iterations =  2.0

     negative rho (up, down):  1.147E-03 4.174E-04
 
     Magnetic moment per site  (integrated on atomic sphere of radius R)
     atom   1 (R=0.413)  charge=  6.0000  magn=  2.0000

     total cpu time spent up to now is       33.2 secs

     End of self-consistent calculation

 ------ SPIN UP ------------


          k = 0.0000 0.0000 0.0000 ( 91623 PWs)   bands (ev):

   -25.1454 -10.8273 -10.8272  -8.7372

     occupation numbers 
     1.0000   1.0000   1.0000   1.0000

 ------ SPIN DOWN ----------


          k = 0.0000 0.0000 0.0000 ( 91623 PWs)   bands (ev):

   -21.5388  -7.5412  -6.4187  -6.4173

     occupation numbers 
     1.0000   1.0000   0.0000   0.0000

     highest occupied, lowest unoccupied level (ev):    -7.5412   -6.4187

!    total energy              =     -41.29552456 Ry
     total all-electron energy =      -150.142415 Ry
     estimated scf accuracy    <       0.00000040 Ry

     The total energy is the sum of the following terms:
     one-electron contribution =     -43.05263463 Ry
     hartree contribution      =      22.99899802 Ry
     xc contribution           =      -7.14043637 Ry
     ewald contribution        =      -4.50429950 Ry
     one-center paw contrib.   =      -9.59715208 Ry
      -> PAW hartree energy AE =      21.74473161 Ry
      -> PAW hartree energy PS =     -21.71172362 Ry
      -> PAW xc energy AE      =     -16.16842406 Ry
      -> PAW xc energy PS      =       6.53826399 Ry
      -> total E_H with PAW    =      23.03200601 Ry
      -> total E_XC with PAW   =     -16.77059644 Ry

     total magnetization       =     2.00 Bohr mag/cell
     absolute magnetization    =     2.02 Bohr mag/cell

     convergence has been achieved in  20 iterations

     negative rho (up, down):  1.147E-03 4.174E-04

     Forces acting on atoms (cartesian axes, Ry/au):

     atom    1 type  1   force =     0.00000000    0.00000000    0.00000000
     The non-local contrib.  to forces
     atom    1 type  1   force =     0.00017376    0.00010307    0.00022724
     The ionic contribution  to forces
     atom    1 type  1   force =    -0.00000000    0.00000000    0.00000000
     The local contribution  to forces
     atom    1 type  1   force =    -0.00005044   -0.00010162   -0.00001835
     The core correction contribution to forces
     atom    1 type  1   force =    -0.00000235   -0.00000233   -0.00000433
     The Hubbard contrib.    to forces
     atom    1 type  1   force =     0.00000000    0.00000000    0.00000000
     The SCF correction term to forces
     atom    1 type  1   force =     0.00011024   -0.00013051   -0.00006199

     Total force =     0.000000     Total SCF correction =     0.000182

     BFGS Geometry Optimization
     Energy error            =      0.0E+00 Ry
     Gradient error          =      0.0E+00 Ry/Bohr

     bfgs converged in   1 scf cycles and   0 bfgs steps
     (criteria: energy <  1.0E-04 Ry, force <  1.0E-03 Ry/Bohr)

     End of BFGS Geometry Optimization

     Final energy             =     -41.2955245574 Ry
Begin final coordinates

ATOMIC_POSITIONS (angstrom)
O                6.1200000000        6.2300000000        6.3400000000
End final coordinates


     Message from routine punch:
     Nothing written, as per user request (disk_io='none')
 
     init_run     :     10.45s CPU      7.03s WALL (       1 calls)
     electrons    :     31.08s CPU     26.05s WALL (       1 calls)
     forces       :      0.30s CPU      0.24s WALL (       1 calls)

     Called by init_run:
     wfcinit      :      0.16s CPU      0.18s WALL (       1 calls)
     wfcinit:atom :      0.00s CPU      0.00s WALL (       2 calls)
     wfcinit:wfcr :      0.14s CPU      0.15s WALL (       2 calls)
     potinit      :      8.73s CPU      4.94s WALL (       1 calls)
     hinit0       :      0.66s CPU      0.82s WALL (       1 calls)

     Called by electrons:
     c_bands      :      0.82s CPU      0.91s WALL (      20 calls)
     sum_band     :      3.99s CPU      4.03s WALL (      20 calls)
     v_of_rho     :      3.65s CPU      3.66s WALL (      21 calls)
     v_h          :      1.37s CPU      1.30s WALL (      21 calls)
     v_xc         :      2.39s CPU      2.46s WALL (      22 calls)
     newd         :      0.87s CPU      0.88s WALL (      21 calls)
                                        0.88s GPU  (      21 calls)
     PAW_pot      :      4.09s CPU      1.61s WALL (      21 calls)
     mix_rho      :      8.76s CPU      9.29s WALL (      20 calls)

     Called by c_bands:
     init_us_2    :      0.03s CPU      0.03s WALL (      84 calls)
     cegterg      :      0.62s CPU      0.63s WALL (      40 calls)

     Called by sum_band:
     sum_band:wei :      0.00s CPU      0.00s WALL (      20 calls)
                                        0.00s GPU  (      20 calls)
     sum_band:loo :      0.39s CPU      0.39s WALL (      20 calls)
                                        0.39s GPU  (      20 calls)
     sum_band:buf :      0.07s CPU      0.07s WALL (      40 calls)
                                        0.07s GPU  (      40 calls)
     sum_band:ini :      0.02s CPU      0.02s WALL (      40 calls)
                                        0.02s GPU  (      40 calls)
     sum_band:cal :      0.01s CPU      0.02s WALL (      40 calls)
                                        0.01s GPU  (      40 calls)
     sum_band:bec :      0.01s CPU      0.01s WALL (      40 calls)
                                        0.01s GPU  (      40 calls)
     addusdens    :      1.26s CPU      1.30s WALL (      20 calls)
                                        1.30s GPU  (      20 calls)
     addusd:skk   :      0.00s CPU      0.00s WALL (      20 calls)
                                        0.00s GPU  (      20 calls)

     Called by *egterg:
     cdiaghg      :      0.04s CPU      0.06s WALL (     125 calls)
                                        0.06s GPU  (     125 calls)
     cegterg:over :      0.02s CPU      0.02s WALL (      85 calls)
     cegterg:upda :      0.02s CPU      0.02s WALL (      85 calls)
     cegterg:last :      0.01s CPU      0.01s WALL (      71 calls)
     h_psi        :      0.58s CPU      0.59s WALL (     127 calls)
                                        0.59s GPU  (     127 calls)
     s_psi        :      0.01s CPU      0.01s WALL (     127 calls)
     g_psi        :      0.00s CPU      0.01s WALL (      85 calls)
                                        0.00s GPU  (      85 calls)

     Called by h_psi:
     h_psi:calbec :      0.01s CPU      0.02s WALL (     127 calls)
                                        0.02s GPU  (     127 calls)
     vloc_psi     :      0.42s CPU      0.43s WALL (     127 calls)
                                        0.43s GPU  (     127 calls)
     add_vuspsi   :      0.01s CPU      0.02s WALL (     127 calls)
                                        0.02s GPU  (     127 calls)

     General routines
     calbec       :      0.01s CPU      0.01s WALL (     175 calls)
     fft          :      9.14s CPU      4.12s WALL (     538 calls)
                                        0.41s GPU  (     496 calls)
     ffts         :      3.70s CPU      1.76s WALL (      82 calls)
                                        0.01s GPU  (      40 calls)
     fftw         :      0.10s CPU      0.34s WALL (     294 calls)
                                        0.34s GPU  (     294 calls)
     interpolate  :     14.50s CPU      7.22s WALL (      42 calls)
 
     Parallel routines

     PAW routines
     PAW_pot      :      4.09s CPU      1.61s WALL (      21 calls)
 
     PWSCF        :     42.01s CPU     33.54s WALL

 
   This run was terminated on:   4:33: 6  26Jan2026            

=------------------------------------------------------------------------------=
   JOB DONE.
=------------------------------------------------------------------------------=
Warning: ieee_divide_by_zero is signaling
Warning: ieee_inexact is signaling
FORTRAN STOP
