level=info msg="Setting CUDA_MODULE_LOADING=LAZY. Please see https://docs.nvidia.com for more information."

     Program PWSCF v.7.3.1 starts on 26Jan2026 at  4:30:10 

     This program is part of the open-source Quantum ESPRESSO suite
     for quantum simulation of materials; please cite
         "P. Giannozzi et al., J. Phys.:Condens. Matter 21 395502 (2009);
         "P. Giannozzi et al., J. Phys.:Condens. Matter 29 465901 (2017);
         "P. Giannozzi et al., J. Chem. Phys. 152 154105 (2020);
          URL http://www.quantum-espresso.org", 
     in publications or presentations arising from this work. More details at
     http://www.quantum-espresso.org/quote

     Parallel version (MPI & OpenMP), running on       4 processor cores
     Number of MPI processes:                 1
     Threads/MPI process:                     4

     MPI processes distributed on     1 nodes
     20856 MiB available memory on the printing compute node when the environment starts
 
     Reading input from ./FullRun_20260126_1230/O2_Ref/espresso.pwi
Warning: card &CELL ignored
Warning: card / ignored
Warning: card &FCP ignored
Warning: card / ignored
Warning: card &RISM ignored
Warning: card / ignored

     Current dimensions of program PWSCF are:
     Max number of different atomic species (ntypx) = 10
     Max number of k-points (npk) =  40000
     Max angular momentum in pseudopotentials (lmaxx) =  4
     file O.pbe-n-kjpaw_psl.1.0.0.UPF: wavefunction(s)  2S 2P renormalized
     Message from routine setup:
     using ibrav=0 with symmetry is DISCOURAGED, use correct ibrav instead
 
     Subspace diagonalization in iterative solution of the eigenvalue problem:
     a serial algorithm will be used

 
     G-vector sticks info
     --------------------
     sticks:   dense  smooth     PW     G-vecs:    dense   smooth      PW
     Sum       30669   15329   3833              4044289  1429635  178925
 
     Using Slab Decomposition
 


     bravais-lattice index     =            0
     lattice parameter (alat)  =      28.3459  a.u.
     unit-cell volume          =   22775.6289 (a.u.)^3
     number of atoms/cell      =            2
     number of atomic types    =            1
     number of electrons       =        12.00 (up:   7.00, down:   5.00)
     number of Kohn-Sham states=           11
     kinetic-energy cutoff     =      60.0000  Ry
     charge density cutoff     =     480.0000  Ry
     scf convergence threshold =      1.0E-06
     mixing beta               =       0.3000
     number of iterations used =            8  plain     mixing
     energy convergence thresh.=      1.0E-04
     force convergence thresh. =      1.0E-03
     Exchange-correlation= SLA  PW   PBX  PBC
                           (   1   4   3   4   0   0   0)
     nstep                     =          100


     GPU acceleration is ACTIVE.  1 visible GPUs per MPI rank
     GPU-aware MPI enabled


     GPU used by master process:

        Device Number: 0
        Device name: Tesla V100-SXM2-16GB
        Compute capability : 70
        Ratio of single to double precision performance  : 2
        Memory Clock Rate (KHz): 877000
        Memory Bus Width (bits): 4096
        Peak Memory Bandwidth (GB/s): 898.05

     celldm(1)=  28.345892  celldm(2)=   0.000000  celldm(3)=   0.000000
     celldm(4)=   0.000000  celldm(5)=   0.000000  celldm(6)=   0.000000

     crystal axes: (cart. coord. in units of alat)
               a(1) = (   1.000000   0.000000   0.000000 )  
               a(2) = (   0.000000   1.000000   0.000000 )  
               a(3) = (   0.000000   0.000000   1.000000 )  

     reciprocal axes: (cart. coord. in units 2 pi/alat)
               b(1) = (  1.000000  0.000000  0.000000 )  
               b(2) = (  0.000000  1.000000  0.000000 )  
               b(3) = (  0.000000  0.000000  1.000000 )  


     PseudoPot. # 1 for O  read from file:
     ./pseudos/O.pbe-n-kjpaw_psl.1.0.0.UPF
     MD5 check sum: e99d9cef9b487d1ca56f5b95ecd0fd7a
     Pseudo is Projector augmented-wave + core cor, Zval =  6.0
     Generated using &quot;atomic&quot; code by A. Dal Corso  v.6.3
     Shape of augmentation charge: PSQ
     Using radial grid of 1095 points,  4 beta functions with: 
                l(1) =   0
                l(2) =   0
                l(3) =   1
                l(4) =   1
     Q(r) pseudized with 0 coefficients 


     atomic species   valence    mass     pseudopotential
     O                 6.00    15.99900     O ( 1.00)

     Starting magnetic structure 
     atomic species   magnetization
     O               0.000

      8 Sym. Ops. (no inversion) found


                                    s                        frac. trans.

      isym =  1     identity                                     

 cryst.   s( 1) = (     1          0          0      )
                  (     0          1          0      )
                  (     0          0          1      )

 cart.    s( 1) = (  1.0000000  0.0000000  0.0000000 )
                  (  0.0000000  1.0000000  0.0000000 )
                  (  0.0000000  0.0000000  1.0000000 )


      isym =  2     180 deg rotation - cart. axis [0,0,1]        

 cryst.   s( 2) = (    -1          0          0      )
                  (     0         -1          0      )
                  (     0          0          1      )

 cart.    s( 2) = ( -1.0000000  0.0000000  0.0000000 )
                  (  0.0000000 -1.0000000  0.0000000 )
                  (  0.0000000  0.0000000  1.0000000 )


      isym =  3      90 deg rotation - cart. axis [0,0,-1]       

 cryst.   s( 3) = (     0         -1          0      )
                  (     1          0          0      )
                  (     0          0          1      )

 cart.    s( 3) = (  0.0000000  1.0000000  0.0000000 )
                  ( -1.0000000  0.0000000  0.0000000 )
                  (  0.0000000  0.0000000  1.0000000 )


      isym =  4      90 deg rotation - cart. axis [0,0,1]        

 cryst.   s( 4) = (     0          1          0      )
                  (    -1          0          0      )
                  (     0          0          1      )

 cart.    s( 4) = (  0.0000000 -1.0000000  0.0000000 )
                  (  1.0000000  0.0000000  0.0000000 )
                  (  0.0000000  0.0000000  1.0000000 )


      isym =  5     inv. 180 deg rotation - cart. axis [0,1,0]   

 cryst.   s( 5) = (     1          0          0      )
                  (     0         -1          0      )
                  (     0          0          1      )

 cart.    s( 5) = (  1.0000000  0.0000000  0.0000000 )
                  (  0.0000000 -1.0000000  0.0000000 )
                  (  0.0000000  0.0000000  1.0000000 )


      isym =  6     inv. 180 deg rotation - cart. axis [1,0,0]   

 cryst.   s( 6) = (    -1          0          0      )
                  (     0          1          0      )
                  (     0          0          1      )

 cart.    s( 6) = ( -1.0000000  0.0000000  0.0000000 )
                  (  0.0000000  1.0000000  0.0000000 )
                  (  0.0000000  0.0000000  1.0000000 )


      isym =  7     inv. 180 deg rotation - cart. axis [1,1,0]   

 cryst.   s( 7) = (     0         -1          0      )
                  (    -1          0          0      )
                  (     0          0          1      )

 cart.    s( 7) = (  0.0000000 -1.0000000  0.0000000 )
                  ( -1.0000000  0.0000000  0.0000000 )
                  (  0.0000000  0.0000000  1.0000000 )


      isym =  8     inv. 180 deg rotation - cart. axis [1,-1,0]  

 cryst.   s( 8) = (     0          1          0      )
                  (     1          0          0      )
                  (     0          0          1      )

 cart.    s( 8) = (  0.0000000  1.0000000  0.0000000 )
                  (  1.0000000  0.0000000  0.0000000 )
                  (  0.0000000  0.0000000  1.0000000 )


   Cartesian axes

     site n.     atom                  positions (alat units)
         1        O      tau(   1) = (   0.5000000   0.5000000   0.5000000  )
         2        O      tau(   2) = (   0.5000000   0.5000000   0.5820000  )

   Crystallographic axes

     site n.     atom                  positions (cryst. coord.)
         1        O      tau(   1) = (  0.5000000  0.5000000  0.5000000  )
         2        O      tau(   2) = (  0.5000000  0.5000000  0.5820000  )

     number of k points=     1  Gaussian smearing, width (Ry)=  0.0050
                       cart. coord. in units 2pi/alat
        k(    1) = (   0.0000000   0.0000000   0.0000000), wk =   1.0000000

                       cryst. coord.
        k(    1) = (   0.0000000   0.0000000   0.0000000), wk =   1.0000000

     Dense  grid:  4044289 G-vectors     FFT dimensions: ( 200, 200, 200)

     Smooth grid:  1429635 G-vectors     FFT dimensions: ( 144, 144, 144)

     Dynamical RAM for                 wfc:      30.00 MB

     Dynamical RAM for     wfc (w. buffer):      90.01 MB

     Dynamical RAM for           str. fact:      61.71 MB

     Dynamical RAM for           local pot:       0.00 MB

     Dynamical RAM for          nlocal pot:      43.64 MB

     Dynamical RAM for                qrad:       0.50 MB

     Dynamical RAM for          rho,v,vnew:     736.48 MB

     Dynamical RAM for               rhoin:     245.49 MB

     Dynamical RAM for            rho*nmix:    1974.75 MB

     Dynamical RAM for           G-vectors:     242.32 MB

     Dynamical RAM for          h,s,v(r/c):       0.02 MB

     Dynamical RAM for          <psi|beta>:       0.00 MB

     Dynamical RAM for                 psi:      60.01 MB

     Dynamical RAM for                hpsi:      60.01 MB

     Dynamical RAM for                spsi:      60.01 MB

     Dynamical RAM for      wfcinit/wfcrot:      60.01 MB

     Dynamical RAM for           addusdens:    2838.70 MB

     Dynamical RAM for          addusforce:    2962.13 MB

     Estimated static dynamical RAM per process >       1.87 GB

     Estimated max dynamical RAM per process >       6.69 GB
     Generating pointlists ...
     new r_m :   0.0338 (alat units)  0.9588 (a.u.) for type    1

     Initial potential from superposition of free atoms

     starting charge      12.0000, renormalised to      12.0000

     negative rho (up, down):  1.283E-03 1.283E-03
     Starting wfcs are    8 randomized atomic wfcs +    3 random wfcs
     Checking if some PAW data can be deallocated... 

     total cpu time spent up to now is       16.5 secs

     Self-consistent Calculation
[tb_dev] Currently allocated     5.54E-01 Mbytes, locked:    0 /   6
[tb_pin] Currently allocated     0.00E+00 Mbytes, locked:    0 /   0

     iteration #  1     ecut=    60.00 Ry     beta= 0.30
     Davidson diagonalization with overlap

---- Real-time Memory Report at c_bands before calling an iterative solver
          2605 MiB given to the printing process from OS
             0 MiB allocation reported by mallinfo(arena+hblkhd)
         18616 MiB available memory on the node where the printing process lives
     GPU memory used/free/total (MiB): 7168 / 8975 / 16144
------------------
     ethr =  1.00E-02,  avg # of iterations =  7.0

     negative rho (up, down):  1.467E-03 1.218E-03

     total cpu time spent up to now is       20.3 secs

     total energy              =     -82.96009259 Ry
     estimated scf accuracy    <       0.12458943 Ry

     total magnetization       =     2.00 Bohr mag/cell
     absolute magnetization    =     2.00 Bohr mag/cell
[tb_dev] Currently allocated     1.53E-05 Mbytes, locked:    0 /   2
[tb_pin] Currently allocated     0.00E+00 Mbytes, locked:    0 /   0

     iteration #  2     ecut=    60.00 Ry     beta= 0.30
     Davidson diagonalization with overlap

---- Real-time Memory Report at c_bands before calling an iterative solver
          2885 MiB given to the printing process from OS
             0 MiB allocation reported by mallinfo(arena+hblkhd)
         18507 MiB available memory on the node where the printing process lives
     GPU memory used/free/total (MiB): 7780 / 8363 / 16144
------------------
     ethr =  1.04E-03,  avg # of iterations =  2.0

     negative rho (up, down):  1.671E-03 1.179E-03

     total cpu time spent up to now is       23.9 secs

     total energy              =     -83.02308279 Ry
     estimated scf accuracy    <       0.04919922 Ry

     total magnetization       =     2.00 Bohr mag/cell
     absolute magnetization    =     2.01 Bohr mag/cell
[tb_dev] Currently allocated     1.53E-05 Mbytes, locked:    0 /   2
[tb_pin] Currently allocated     0.00E+00 Mbytes, locked:    0 /   0

     iteration #  3     ecut=    60.00 Ry     beta= 0.30
     Davidson diagonalization with overlap

---- Real-time Memory Report at c_bands before calling an iterative solver
          2982 MiB given to the printing process from OS
             0 MiB allocation reported by mallinfo(arena+hblkhd)
         18411 MiB available memory on the node where the printing process lives
     GPU memory used/free/total (MiB): 7780 / 8363 / 16144
------------------
     ethr =  4.10E-04,  avg # of iterations =  7.0

     negative rho (up, down):  1.843E-03 1.265E-03

     total cpu time spent up to now is       27.6 secs

     total energy              =     -83.03556869 Ry
     estimated scf accuracy    <       0.00786694 Ry

     total magnetization       =     2.00 Bohr mag/cell
     absolute magnetization    =     2.01 Bohr mag/cell
[tb_dev] Currently allocated     1.53E-05 Mbytes, locked:    0 /   2
[tb_pin] Currently allocated     0.00E+00 Mbytes, locked:    0 /   0

     iteration #  4     ecut=    60.00 Ry     beta= 0.30
     Davidson diagonalization with overlap

---- Real-time Memory Report at c_bands before calling an iterative solver
          3157 MiB given to the printing process from OS
             0 MiB allocation reported by mallinfo(arena+hblkhd)
         18312 MiB available memory on the node where the printing process lives
     GPU memory used/free/total (MiB): 7794 / 8349 / 16144
------------------
     c_bands:  1 eigenvalues not converged
     ethr =  6.56E-05,  avg # of iterations = 18.0

     negative rho (up, down):  1.875E-03 1.303E-03

     total cpu time spent up to now is       31.7 secs

     total energy              =     -83.03847089 Ry
     estimated scf accuracy    <       0.00197430 Ry

     total magnetization       =     2.00 Bohr mag/cell
     absolute magnetization    =     2.03 Bohr mag/cell
[tb_dev] Currently allocated     1.53E-05 Mbytes, locked:    0 /   2
[tb_pin] Currently allocated     0.00E+00 Mbytes, locked:    0 /   0

     iteration #  5     ecut=    60.00 Ry     beta= 0.30
     Davidson diagonalization with overlap

---- Real-time Memory Report at c_bands before calling an iterative solver
          3340 MiB given to the printing process from OS
             0 MiB allocation reported by mallinfo(arena+hblkhd)
         18226 MiB available memory on the node where the printing process lives
     GPU memory used/free/total (MiB): 7794 / 8349 / 16144
------------------
     ethr =  1.65E-05,  avg # of iterations =  4.0

     negative rho (up, down):  1.919E-03 1.265E-03

     total cpu time spent up to now is       35.7 secs

     total energy              =     -83.03899754 Ry
     estimated scf accuracy    <       0.00035876 Ry

     total magnetization       =     2.00 Bohr mag/cell
     absolute magnetization    =     2.04 Bohr mag/cell
[tb_dev] Currently allocated     1.53E-05 Mbytes, locked:    0 /   2
[tb_pin] Currently allocated     0.00E+00 Mbytes, locked:    0 /   0

     iteration #  6     ecut=    60.00 Ry     beta= 0.30
     Davidson diagonalization with overlap

---- Real-time Memory Report at c_bands before calling an iterative solver
          3515 MiB given to the printing process from OS
             0 MiB allocation reported by mallinfo(arena+hblkhd)
         18141 MiB available memory on the node where the printing process lives
     GPU memory used/free/total (MiB): 7794 / 8349 / 16144
------------------
     c_bands:  1 eigenvalues not converged
     c_bands:  1 eigenvalues not converged
     ethr =  2.99E-06,  avg # of iterations = 20.0

     negative rho (up, down):  1.940E-03 1.218E-03

     total cpu time spent up to now is       40.2 secs

     total energy              =     -83.03915425 Ry
     estimated scf accuracy    <       0.00008938 Ry

     total magnetization       =     2.00 Bohr mag/cell
     absolute magnetization    =     2.04 Bohr mag/cell
[tb_dev] Currently allocated     1.53E-05 Mbytes, locked:    0 /   2
[tb_pin] Currently allocated     0.00E+00 Mbytes, locked:    0 /   0

     iteration #  7     ecut=    60.00 Ry     beta= 0.30
     Davidson diagonalization with overlap

---- Real-time Memory Report at c_bands before calling an iterative solver
          3691 MiB given to the printing process from OS
             0 MiB allocation reported by mallinfo(arena+hblkhd)
         18045 MiB available memory on the node where the printing process lives
     GPU memory used/free/total (MiB): 7794 / 8349 / 16144
------------------
     ethr =  7.45E-07,  avg # of iterations = 14.5

     negative rho (up, down):  1.957E-03 1.190E-03

     total cpu time spent up to now is       44.7 secs

     total energy              =     -83.03919898 Ry
     estimated scf accuracy    <       0.00007101 Ry

     total magnetization       =     2.00 Bohr mag/cell
     absolute magnetization    =     2.05 Bohr mag/cell
[tb_dev] Currently allocated     1.53E-05 Mbytes, locked:    0 /   2
[tb_pin] Currently allocated     0.00E+00 Mbytes, locked:    0 /   0

     iteration #  8     ecut=    60.00 Ry     beta= 0.30
     Davidson diagonalization with overlap

---- Real-time Memory Report at c_bands before calling an iterative solver
          3866 MiB given to the printing process from OS
             0 MiB allocation reported by mallinfo(arena+hblkhd)
         17946 MiB available memory on the node where the printing process lives
     GPU memory used/free/total (MiB): 7794 / 8349 / 16144
------------------
     ethr =  5.92E-07,  avg # of iterations =  2.0

     negative rho (up, down):  1.972E-03 1.176E-03

     total cpu time spent up to now is       49.2 secs

     total energy              =     -83.03918902 Ry
     estimated scf accuracy    <       0.00009387 Ry

     total magnetization       =     2.00 Bohr mag/cell
     absolute magnetization    =     2.05 Bohr mag/cell
[tb_dev] Currently allocated     1.53E-05 Mbytes, locked:    0 /   2
[tb_pin] Currently allocated     0.00E+00 Mbytes, locked:    0 /   0

     iteration #  9     ecut=    60.00 Ry     beta= 0.30
     Davidson diagonalization with overlap

---- Real-time Memory Report at c_bands before calling an iterative solver
          4041 MiB given to the printing process from OS
             0 MiB allocation reported by mallinfo(arena+hblkhd)
         17858 MiB available memory on the node where the printing process lives
     GPU memory used/free/total (MiB): 7794 / 8349 / 16144
------------------
     ethr =  5.92E-07,  avg # of iterations =  2.0

     negative rho (up, down):  1.987E-03 1.173E-03

     total cpu time spent up to now is       53.9 secs

     total energy              =     -83.03918514 Ry
     estimated scf accuracy    <       0.00003294 Ry

     total magnetization       =     2.00 Bohr mag/cell
     absolute magnetization    =     2.05 Bohr mag/cell
[tb_dev] Currently allocated     1.53E-05 Mbytes, locked:    0 /   2
[tb_pin] Currently allocated     0.00E+00 Mbytes, locked:    0 /   0

     iteration # 10     ecut=    60.00 Ry     beta= 0.30
     Davidson diagonalization with overlap

---- Real-time Memory Report at c_bands before calling an iterative solver
          4216 MiB given to the printing process from OS
             0 MiB allocation reported by mallinfo(arena+hblkhd)
         17771 MiB available memory on the node where the printing process lives
     GPU memory used/free/total (MiB): 7794 / 8349 / 16144
------------------
     ethr =  2.75E-07,  avg # of iterations =  3.5

     negative rho (up, down):  1.995E-03 1.167E-03

     total cpu time spent up to now is       58.5 secs

     total energy              =     -83.03920536 Ry
     estimated scf accuracy    <       0.00000493 Ry

     total magnetization       =     2.00 Bohr mag/cell
     absolute magnetization    =     2.05 Bohr mag/cell
[tb_dev] Currently allocated     1.53E-05 Mbytes, locked:    0 /   2
[tb_pin] Currently allocated     0.00E+00 Mbytes, locked:    0 /   0

     iteration # 11     ecut=    60.00 Ry     beta= 0.30
     Davidson diagonalization with overlap

---- Real-time Memory Report at c_bands before calling an iterative solver
          4216 MiB given to the printing process from OS
             0 MiB allocation reported by mallinfo(arena+hblkhd)
         17767 MiB available memory on the node where the printing process lives
     GPU memory used/free/total (MiB): 7794 / 8349 / 16144
------------------
     ethr =  4.11E-08,  avg # of iterations =  3.5

     negative rho (up, down):  2.000E-03 1.164E-03

     total cpu time spent up to now is       63.2 secs

     total energy              =     -83.03920818 Ry
     estimated scf accuracy    <       0.00001007 Ry

     total magnetization       =     2.00 Bohr mag/cell
     absolute magnetization    =     2.05 Bohr mag/cell
[tb_dev] Currently allocated     1.53E-05 Mbytes, locked:    0 /   2
[tb_pin] Currently allocated     0.00E+00 Mbytes, locked:    0 /   0

     iteration # 12     ecut=    60.00 Ry     beta= 0.30
     Davidson diagonalization with overlap

---- Real-time Memory Report at c_bands before calling an iterative solver
          4217 MiB given to the printing process from OS
             0 MiB allocation reported by mallinfo(arena+hblkhd)
         17769 MiB available memory on the node where the printing process lives
     GPU memory used/free/total (MiB): 7794 / 8349 / 16144
------------------
     ethr =  4.11E-08,  avg # of iterations =  1.5

     negative rho (up, down):  2.004E-03 1.162E-03

     total cpu time spent up to now is       67.8 secs

     total energy              =     -83.03920668 Ry
     estimated scf accuracy    <       0.00001000 Ry

     total magnetization       =     2.00 Bohr mag/cell
     absolute magnetization    =     2.05 Bohr mag/cell
[tb_dev] Currently allocated     1.53E-05 Mbytes, locked:    0 /   2
[tb_pin] Currently allocated     0.00E+00 Mbytes, locked:    0 /   0

     iteration # 13     ecut=    60.00 Ry     beta= 0.30
     Davidson diagonalization with overlap

---- Real-time Memory Report at c_bands before calling an iterative solver
          4217 MiB given to the printing process from OS
             0 MiB allocation reported by mallinfo(arena+hblkhd)
         17768 MiB available memory on the node where the printing process lives
     GPU memory used/free/total (MiB): 7794 / 8349 / 16144
------------------
     ethr =  4.11E-08,  avg # of iterations =  1.0

     negative rho (up, down):  2.002E-03 1.159E-03

     total cpu time spent up to now is       72.5 secs

     total energy              =     -83.03919328 Ry
     estimated scf accuracy    <       0.00000765 Ry

     total magnetization       =     2.00 Bohr mag/cell
     absolute magnetization    =     2.05 Bohr mag/cell
[tb_dev] Currently allocated     1.53E-05 Mbytes, locked:    0 /   2
[tb_pin] Currently allocated     0.00E+00 Mbytes, locked:    0 /   0

     iteration # 14     ecut=    60.00 Ry     beta= 0.30
     Davidson diagonalization with overlap

---- Real-time Memory Report at c_bands before calling an iterative solver
          4217 MiB given to the printing process from OS
             0 MiB allocation reported by mallinfo(arena+hblkhd)
         17775 MiB available memory on the node where the printing process lives
     GPU memory used/free/total (MiB): 7794 / 8349 / 16144
------------------
     ethr =  4.11E-08,  avg # of iterations =  5.5

     negative rho (up, down):  2.017E-03 1.162E-03

     total cpu time spent up to now is       77.1 secs

     total energy              =     -83.03919579 Ry
     estimated scf accuracy    <       0.00001029 Ry

     total magnetization       =     2.00 Bohr mag/cell
     absolute magnetization    =     2.05 Bohr mag/cell
[tb_dev] Currently allocated     1.53E-05 Mbytes, locked:    0 /   2
[tb_pin] Currently allocated     0.00E+00 Mbytes, locked:    0 /   0

     iteration # 15     ecut=    60.00 Ry     beta= 0.30
     Davidson diagonalization with overlap

---- Real-time Memory Report at c_bands before calling an iterative solver
          4217 MiB given to the printing process from OS
             0 MiB allocation reported by mallinfo(arena+hblkhd)
         17777 MiB available memory on the node where the printing process lives
     GPU memory used/free/total (MiB): 7794 / 8349 / 16144
------------------
     ethr =  4.11E-08,  avg # of iterations =  5.5

     negative rho (up, down):  2.015E-03 1.160E-03

     total cpu time spent up to now is       81.8 secs

     total energy              =     -83.03921476 Ry
     estimated scf accuracy    <       0.00006577 Ry

     total magnetization       =     2.00 Bohr mag/cell
     absolute magnetization    =     2.05 Bohr mag/cell
[tb_dev] Currently allocated     1.53E-05 Mbytes, locked:    0 /   2
[tb_pin] Currently allocated     0.00E+00 Mbytes, locked:    0 /   0

     iteration # 16     ecut=    60.00 Ry     beta= 0.30
     Davidson diagonalization with overlap

---- Real-time Memory Report at c_bands before calling an iterative solver
          4217 MiB given to the printing process from OS
             0 MiB allocation reported by mallinfo(arena+hblkhd)
         17776 MiB available memory on the node where the printing process lives
     GPU memory used/free/total (MiB): 7796 / 8347 / 16144
------------------
     ethr =  4.11E-08,  avg # of iterations =  1.0

     negative rho (up, down):  2.016E-03 1.159E-03

     total cpu time spent up to now is       86.5 secs

     total energy              =     -83.03921448 Ry
     estimated scf accuracy    <       0.00004562 Ry

     total magnetization       =     2.00 Bohr mag/cell
     absolute magnetization    =     2.05 Bohr mag/cell
[tb_dev] Currently allocated     1.53E-05 Mbytes, locked:    0 /   2
[tb_pin] Currently allocated     0.00E+00 Mbytes, locked:    0 /   0

     iteration # 17     ecut=    60.00 Ry     beta= 0.30
     Davidson diagonalization with overlap

---- Real-time Memory Report at c_bands before calling an iterative solver
          4218 MiB given to the printing process from OS
             0 MiB allocation reported by mallinfo(arena+hblkhd)
         17779 MiB available memory on the node where the printing process lives
     GPU memory used/free/total (MiB): 7796 / 8347 / 16144
------------------
     ethr =  4.11E-08,  avg # of iterations =  1.5

     negative rho (up, down):  2.016E-03 1.158E-03

     total cpu time spent up to now is       91.1 secs

     total energy              =     -83.03921378 Ry
     estimated scf accuracy    <       0.00004385 Ry

     total magnetization       =     2.00 Bohr mag/cell
     absolute magnetization    =     2.05 Bohr mag/cell
[tb_dev] Currently allocated     1.53E-05 Mbytes, locked:    0 /   2
[tb_pin] Currently allocated     0.00E+00 Mbytes, locked:    0 /   0

     iteration # 18     ecut=    60.00 Ry     beta= 0.30
     Davidson diagonalization with overlap

---- Real-time Memory Report at c_bands before calling an iterative solver
          4218 MiB given to the printing process from OS
             0 MiB allocation reported by mallinfo(arena+hblkhd)
         17779 MiB available memory on the node where the printing process lives
     GPU memory used/free/total (MiB): 7796 / 8347 / 16144
------------------
     ethr =  4.11E-08,  avg # of iterations =  1.0

     negative rho (up, down):  2.017E-03 1.158E-03

     total cpu time spent up to now is       95.7 secs

     total energy              =     -83.03921078 Ry
     estimated scf accuracy    <       0.00004064 Ry

     total magnetization       =     2.00 Bohr mag/cell
     absolute magnetization    =     2.05 Bohr mag/cell
[tb_dev] Currently allocated     1.53E-05 Mbytes, locked:    0 /   2
[tb_pin] Currently allocated     0.00E+00 Mbytes, locked:    0 /   0

     iteration # 19     ecut=    60.00 Ry     beta= 0.30
     Davidson diagonalization with overlap

---- Real-time Memory Report at c_bands before calling an iterative solver
          4218 MiB given to the printing process from OS
             0 MiB allocation reported by mallinfo(arena+hblkhd)
         17782 MiB available memory on the node where the printing process lives
     GPU memory used/free/total (MiB): 7796 / 8347 / 16144
------------------
     ethr =  4.11E-08,  avg # of iterations =  2.0

     negative rho (up, down):  2.015E-03 1.158E-03

     total cpu time spent up to now is      100.3 secs

     total energy              =     -83.03919715 Ry
     estimated scf accuracy    <       0.00003306 Ry

     total magnetization       =     2.00 Bohr mag/cell
     absolute magnetization    =     2.05 Bohr mag/cell
[tb_dev] Currently allocated     1.53E-05 Mbytes, locked:    0 /   2
[tb_pin] Currently allocated     0.00E+00 Mbytes, locked:    0 /   0

     iteration # 20     ecut=    60.00 Ry     beta= 0.30
     Davidson diagonalization with overlap

---- Real-time Memory Report at c_bands before calling an iterative solver
          4218 MiB given to the printing process from OS
             0 MiB allocation reported by mallinfo(arena+hblkhd)
         17785 MiB available memory on the node where the printing process lives
     GPU memory used/free/total (MiB): 7796 / 8347 / 16144
------------------
     ethr =  4.11E-08,  avg # of iterations =  5.0

     negative rho (up, down):  2.020E-03 1.159E-03
 
     Magnetic moment per site  (integrated on atomic sphere of radius R)
     atom   1 (R=0.034)  charge=  2.9832  magn=  0.5736
     atom   2 (R=0.034)  charge=  2.9869  magn=  0.5738

     total cpu time spent up to now is      103.4 secs

     End of self-consistent calculation

 ------ SPIN UP ------------


          k = 0.0000 0.0000 0.0000 (178925 PWs)   bands (ev):

   -32.5180 -20.6506 -13.4180 -13.3114 -13.3114  -6.9481  -6.9481  -0.3799
     0.1579   0.2543   0.3331

     occupation numbers 
     1.0000   1.0000   1.0000   1.0000   1.0000   1.0000   1.0000   0.0000
     0.0000   0.0000   0.0000

 ------ SPIN DOWN ----------


          k = 0.0000 0.0000 0.0000 (178925 PWs)   bands (ev):

   -31.3123 -18.8532 -12.5271 -11.4438 -11.4438  -4.6400  -4.6400  -0.3207
     0.2383   0.3364   0.3787

     occupation numbers 
     1.0000   1.0000   1.0000   1.0000   1.0000   0.0000   0.0000   0.0000
     0.0000   0.0000   0.0000

     the spin up/dw Fermi energies are    -3.2232   -7.5054 ev

!    total energy              =     -83.03920464 Ry
     total all-electron energy =      -300.732985 Ry
     estimated scf accuracy    <       0.00000034 Ry
     smearing contrib. (-TS)   =      -0.00000000 Ry
     internal energy E=F+TS    =     -83.03920464 Ry

     The total energy is F=E-TS. E is the sum of the following terms:
     one-electron contribution =    -136.33914813 Ry
     hartree contribution      =      70.39959903 Ry
     xc contribution           =     -14.50152346 Ry
     ewald contribution        =      16.59859679 Ry
     one-center paw contrib.   =     -19.19672887 Ry
      -> PAW hartree energy AE =      50.46071541 Ry
      -> PAW hartree energy PS =     -50.39382707 Ry
      -> PAW xc energy AE      =     -33.16800375 Ry
      -> PAW xc energy PS      =      13.90438653 Ry
      -> total E_H with PAW    =      70.46648737 Ry
      -> total E_XC with PAW   =     -33.76514068 Ry

     total magnetization       =     2.00 Bohr mag/cell
     absolute magnetization    =     2.05 Bohr mag/cell

     convergence has been achieved in  20 iterations

     negative rho (up, down):  2.020E-03 1.159E-03

     Forces acting on atoms (cartesian axes, Ry/au):

     atom    1 type  1   force =     0.00000000    0.00000000    0.00357136
     atom    2 type  1   force =     0.00000000    0.00000000   -0.00357136
     The non-local contrib.  to forces
     atom    1 type  1   force =     0.00000000    0.00000000    2.69802684
     atom    2 type  1   force =     0.00000000    0.00000000   -2.69779476
     The ionic contribution  to forces
     atom    1 type  1   force =    -0.00000000   -0.00000000  -13.29536436
     atom    2 type  1   force =     0.00000000    0.00000000   13.29536436
     The local contribution  to forces
     atom    1 type  1   force =     0.00000000    0.00000000   10.62265621
     atom    2 type  1   force =     0.00000000    0.00000000  -10.62249339
     The core correction contribution to forces
     atom    1 type  1   force =    -0.00000000   -0.00000000   -0.02303012
     atom    2 type  1   force =    -0.00000000   -0.00000000    0.02302632
     The Hubbard contrib.    to forces
     atom    1 type  1   force =     0.00000000    0.00000000    0.00000000
     atom    2 type  1   force =     0.00000000    0.00000000    0.00000000
     The SCF correction term to forces
     atom    1 type  1   force =    -0.00000000   -0.00000000    0.00126535
     atom    2 type  1   force =    -0.00000000    0.00000000   -0.00169134

     Total force =     0.005051     Total SCF correction =     0.002112
     SCF correction compared to forces is large: reduce conv_thr to get better values

     BFGS Geometry Optimization
     Energy error            =      0.0E+00 Ry
     Gradient error          =      3.6E-03 Ry/Bohr

     number of scf cycles    =   1
     number of bfgs steps    =   0

     energy             new  =     -83.0392046375 Ry

     new trust radius        =       0.0035713634 bohr
     new conv_thr            =       0.0000010000 Ry


ATOMIC_POSITIONS (angstrom)
O                7.5000000000        7.5000000000        7.5018898841
O                7.5000000000        7.5000000000        8.7281101159


     Message from routine punch:
     Nothing written, as per user request (disk_io='none')
     NEW-OLD atomic charge density approx. for the potential

     negative rho (up, down):  1.587E-03 1.597E-03
     Generating pointlists ...

     total cpu time spent up to now is      107.1 secs

     Self-consistent Calculation
[tb_dev] Currently allocated     0.00E+00 Mbytes, locked:    0 /   0
[tb_pin] Currently allocated     0.00E+00 Mbytes, locked:    0 /   0

     iteration #  1     ecut=    60.00 Ry     beta= 0.30
     Davidson diagonalization with overlap

---- Real-time Memory Report at c_bands before calling an iterative solver
          4218 MiB given to the printing process from OS
             0 MiB allocation reported by mallinfo(arena+hblkhd)
         18420 MiB available memory on the node where the printing process lives
     GPU memory used/free/total (MiB): 7796 / 8347 / 16144
------------------
     ethr =  1.00E-06,  avg # of iterations =  4.5

     negative rho (up, down):  1.829E-03 1.433E-03

     total cpu time spent up to now is      110.9 secs

     total energy              =     -83.03919144 Ry
     estimated scf accuracy    <       0.00001445 Ry

     total magnetization       =     2.00 Bohr mag/cell
     absolute magnetization    =     2.05 Bohr mag/cell
[tb_dev] Currently allocated     1.53E-05 Mbytes, locked:    0 /   2
[tb_pin] Currently allocated     0.00E+00 Mbytes, locked:    0 /   0

     iteration #  2     ecut=    60.00 Ry     beta= 0.30
     Davidson diagonalization with overlap

---- Real-time Memory Report at c_bands before calling an iterative solver
          4218 MiB given to the printing process from OS
             0 MiB allocation reported by mallinfo(arena+hblkhd)
         18317 MiB available memory on the node where the printing process lives
     GPU memory used/free/total (MiB): 7796 / 8347 / 16144
------------------
     ethr =  1.20E-07,  avg # of iterations =  2.0

     negative rho (up, down):  1.951E-03 1.280E-03

     total cpu time spent up to now is      114.4 secs

     total energy              =     -83.03919052 Ry
     estimated scf accuracy    <       0.00000539 Ry

     total magnetization       =     2.00 Bohr mag/cell
     absolute magnetization    =     2.05 Bohr mag/cell
[tb_dev] Currently allocated     1.53E-05 Mbytes, locked:    0 /   2
[tb_pin] Currently allocated     0.00E+00 Mbytes, locked:    0 /   0

     iteration #  3     ecut=    60.00 Ry     beta= 0.30
     Davidson diagonalization with overlap

---- Real-time Memory Report at c_bands before calling an iterative solver
          4218 MiB given to the printing process from OS
             0 MiB allocation reported by mallinfo(arena+hblkhd)
         18240 MiB available memory on the node where the printing process lives
     GPU memory used/free/total (MiB): 7796 / 8347 / 16144
------------------
     ethr =  4.49E-08,  avg # of iterations =  5.0

     negative rho (up, down):  1.948E-03 1.259E-03

     total cpu time spent up to now is      118.1 secs

     total energy              =     -83.03919470 Ry
     estimated scf accuracy    <       0.00000253 Ry

     total magnetization       =     2.00 Bohr mag/cell
     absolute magnetization    =     2.05 Bohr mag/cell
[tb_dev] Currently allocated     1.53E-05 Mbytes, locked:    0 /   2
[tb_pin] Currently allocated     0.00E+00 Mbytes, locked:    0 /   0

     iteration #  4     ecut=    60.00 Ry     beta= 0.30
     Davidson diagonalization with overlap

---- Real-time Memory Report at c_bands before calling an iterative solver
          4218 MiB given to the printing process from OS
             0 MiB allocation reported by mallinfo(arena+hblkhd)
         18153 MiB available memory on the node where the printing process lives
     GPU memory used/free/total (MiB): 7796 / 8347 / 16144
------------------
     ethr =  2.11E-08,  avg # of iterations =  1.0

     negative rho (up, down):  1.961E-03 1.234E-03

     total cpu time spent up to now is      121.9 secs

     total energy              =     -83.03919399 Ry
     estimated scf accuracy    <       0.00000166 Ry

     total magnetization       =     2.00 Bohr mag/cell
     absolute magnetization    =     2.05 Bohr mag/cell
[tb_dev] Currently allocated     1.53E-05 Mbytes, locked:    0 /   2
[tb_pin] Currently allocated     0.00E+00 Mbytes, locked:    0 /   0

     iteration #  5     ecut=    60.00 Ry     beta= 0.30
     Davidson diagonalization with overlap

---- Real-time Memory Report at c_bands before calling an iterative solver
          4218 MiB given to the printing process from OS
             0 MiB allocation reported by mallinfo(arena+hblkhd)
         18065 MiB available memory on the node where the printing process lives
     GPU memory used/free/total (MiB): 7796 / 8347 / 16144
------------------
     ethr =  1.38E-08,  avg # of iterations =  2.0

     negative rho (up, down):  2.020E-03 1.161E-03
 
     Magnetic moment per site  (integrated on atomic sphere of radius R)
     atom   1 (R=0.034)  charge=  2.9855  magn=  0.5736
     atom   2 (R=0.034)  charge=  2.9890  magn=  0.5737

     total cpu time spent up to now is      124.8 secs

     End of self-consistent calculation

 ------ SPIN UP ------------


          k = 0.0000 0.0000 0.0000 (178925 PWs)   bands (ev):

   -32.6000 -20.6216 -13.4293 -13.3466 -13.3466  -6.9212  -6.9212  -0.3798
     0.1579   0.2579   0.3325

     occupation numbers 
     1.0000   1.0000   1.0000   1.0000   1.0000   1.0000   1.0000   0.0000
     0.0000   0.0000   0.0000

 ------ SPIN DOWN ----------


          k = 0.0000 0.0000 0.0000 (178925 PWs)   bands (ev):

   -31.3985 -18.8243 -12.5365 -11.4793 -11.4793  -4.6113  -4.6113  -0.3196
     0.2396   0.3386   0.3791

     occupation numbers 
     1.0000   1.0000   1.0000   1.0000   1.0000   0.0000   0.0000   0.0000
     0.0000   0.0000   0.0000

     the spin up/dw Fermi energies are    -3.2331   -7.5255 ev

!    total energy              =     -83.03919434 Ry
     total all-electron energy =      -300.732975 Ry
     estimated scf accuracy    <       0.00000021 Ry
     smearing contrib. (-TS)   =      -0.00000000 Ry
     internal energy E=F+TS    =     -83.03919434 Ry

     The total energy is F=E-TS. E is the sum of the following terms:
     one-electron contribution =    -136.51030599 Ry
     hartree contribution      =      70.48152074 Ry
     xc contribution           =     -14.50768737 Ry
     ewald contribution        =      16.69385572 Ry
     one-center paw contrib.   =     -19.19657745 Ry
      -> PAW hartree energy AE =      50.58431811 Ry
      -> PAW hartree energy PS =     -50.51738370 Ry
      -> PAW xc energy AE      =     -33.18755067 Ry
      -> PAW xc energy PS      =      13.92403881 Ry
      -> total E_H with PAW    =      70.54845515 Ry
      -> total E_XC with PAW   =     -33.77119923 Ry

     total magnetization       =     2.00 Bohr mag/cell
     absolute magnetization    =     2.05 Bohr mag/cell

     convergence has been achieved in   5 iterations

     negative rho (up, down):  2.020E-03 1.161E-03

     Forces acting on atoms (cartesian axes, Ry/au):

     atom    1 type  1   force =     0.00000000    0.00000000   -0.00712077
     atom    2 type  1   force =     0.00000000    0.00000000    0.00712077
     The non-local contrib.  to forces
     atom    1 type  1   force =     0.00000000    0.00000000    2.71070124
     atom    2 type  1   force =     0.00000000    0.00000000   -2.71086956
     The ionic contribution  to forces
     atom    1 type  1   force =    -0.00000000   -0.00000000  -13.37774950
     atom    2 type  1   force =    -0.00000000   -0.00000000   13.37774950
     The local contribution  to forces
     atom    1 type  1   force =     0.00000000    0.00000000   10.68321171
     atom    2 type  1   force =     0.00000000    0.00000000  -10.68269507
     The core correction contribution to forces
     atom    1 type  1   force =    -0.00000000   -0.00000000   -0.02302360
     atom    2 type  1   force =    -0.00000000   -0.00000000    0.02302368
     The Hubbard contrib.    to forces
     atom    1 type  1   force =     0.00000000    0.00000000    0.00000000
     atom    2 type  1   force =     0.00000000    0.00000000    0.00000000
     The SCF correction term to forces
     atom    1 type  1   force =     0.00000000   -0.00000000   -0.00028413
     atom    2 type  1   force =     0.00000000    0.00000000   -0.00011128

     Total force =     0.010070     Total SCF correction =     0.000305
     Energy error            =      1.0E-05 Ry
     Gradient error          =      7.1E-03 Ry/Bohr

     number of scf cycles    =   2
     number of bfgs steps    =   1

     energy             old  =     -83.0392046375 Ry
     energy             new  =     -83.0391943387 Ry

     CASE: energy            _new > energy            _old

     new trust radius        =       0.0012720996 bohr
     new conv_thr            =       0.0000010000 Ry


ATOMIC_POSITIONS (angstrom)
O                7.5000000000        7.5000000000        7.5006731661
O                7.5000000000        7.5000000000        8.7293268339


     Message from routine punch:
     Nothing written, as per user request (disk_io='none')
     NEW-OLD atomic charge density approx. for the potential

     negative rho (up, down):  1.596E-03 1.594E-03
     Generating pointlists ...

     total cpu time spent up to now is      128.4 secs

     Self-consistent Calculation
[tb_dev] Currently allocated     0.00E+00 Mbytes, locked:    0 /   0
[tb_pin] Currently allocated     0.00E+00 Mbytes, locked:    0 /   0

     iteration #  1     ecut=    60.00 Ry     beta= 0.30
     Davidson diagonalization with overlap

---- Real-time Memory Report at c_bands before calling an iterative solver
          4218 MiB given to the printing process from OS
             0 MiB allocation reported by mallinfo(arena+hblkhd)
         18416 MiB available memory on the node where the printing process lives
     GPU memory used/free/total (MiB): 7796 / 8347 / 16144
------------------
     ethr =  1.00E-06,  avg # of iterations =  4.0

     Threshold (ethr) on eigenvalues was too large:
     Diagonalizing with lowered threshold

     Davidson diagonalization with overlap

---- Real-time Memory Report at c_bands before calling an iterative solver
          4218 MiB given to the printing process from OS
             0 MiB allocation reported by mallinfo(arena+hblkhd)
         18414 MiB available memory on the node where the printing process lives
     GPU memory used/free/total (MiB): 7796 / 8347 / 16144
------------------
     ethr =  3.08E-08,  avg # of iterations =  6.0

     negative rho (up, down):  1.813E-03 1.408E-03

     total cpu time spent up to now is      133.5 secs

     total energy              =     -83.03920900 Ry
     estimated scf accuracy    <       0.00000296 Ry

     total magnetization       =     2.00 Bohr mag/cell
     absolute magnetization    =     2.05 Bohr mag/cell
[tb_dev] Currently allocated     1.53E-05 Mbytes, locked:    0 /   2
[tb_pin] Currently allocated     0.00E+00 Mbytes, locked:    0 /   0

     iteration #  2     ecut=    60.00 Ry     beta= 0.30
     Davidson diagonalization with overlap

---- Real-time Memory Report at c_bands before calling an iterative solver
          4218 MiB given to the printing process from OS
             0 MiB allocation reported by mallinfo(arena+hblkhd)
         18330 MiB available memory on the node where the printing process lives
     GPU memory used/free/total (MiB): 7796 / 8347 / 16144
------------------
     ethr =  2.46E-08,  avg # of iterations =  1.0

     negative rho (up, down):  1.908E-03 1.295E-03

     total cpu time spent up to now is      137.1 secs

     total energy              =     -83.03920918 Ry
     estimated scf accuracy    <       0.00000105 Ry

     total magnetization       =     2.00 Bohr mag/cell
     absolute magnetization    =     2.05 Bohr mag/cell
[tb_dev] Currently allocated     1.53E-05 Mbytes, locked:    0 /   2
[tb_pin] Currently allocated     0.00E+00 Mbytes, locked:    0 /   0

     iteration #  3     ecut=    60.00 Ry     beta= 0.30
     Davidson diagonalization with overlap

---- Real-time Memory Report at c_bands before calling an iterative solver
          4218 MiB given to the printing process from OS
             0 MiB allocation reported by mallinfo(arena+hblkhd)
         18242 MiB available memory on the node where the printing process lives
     GPU memory used/free/total (MiB): 7796 / 8347 / 16144
------------------
     ethr =  8.74E-09,  avg # of iterations =  2.0

     negative rho (up, down):  2.020E-03 1.160E-03
 
     Magnetic moment per site  (integrated on atomic sphere of radius R)
     atom   1 (R=0.034)  charge=  2.9840  magn=  0.5737
     atom   2 (R=0.034)  charge=  2.9877  magn=  0.5738

     total cpu time spent up to now is      140.0 secs

     End of self-consistent calculation

 ------ SPIN UP ------------


          k = 0.0000 0.0000 0.0000 (178925 PWs)   bands (ev):

   -32.5514 -20.6425 -13.4237 -13.3272 -13.3272  -6.9417  -6.9417  -0.3801
     0.1574   0.2552   0.3323

     occupation numbers 
     1.0000   1.0000   1.0000   1.0000   1.0000   1.0000   1.0000   0.0000
     0.0000   0.0000   0.0000

 ------ SPIN DOWN ----------


          k = 0.0000 0.0000 0.0000 (178925 PWs)   bands (ev):

   -31.3457 -18.8466 -12.5350 -11.4591 -11.4591  -4.6322  -4.6322  -0.3196
     0.2392   0.3379   0.3789

     occupation numbers 
     1.0000   1.0000   1.0000   1.0000   1.0000   0.0000   0.0000   0.0000
     0.0000   0.0000   0.0000

     the spin up/dw Fermi energies are    -3.2271   -7.5135 ev

!    total energy              =     -83.03920958 Ry
     total all-electron energy =      -300.732990 Ry
     estimated scf accuracy    <       0.00000013 Ry
     smearing contrib. (-TS)   =      -0.00000000 Ry
     internal energy E=F+TS    =     -83.03920958 Ry

     The total energy is F=E-TS. E is the sum of the following terms:
     one-electron contribution =    -136.40127085 Ry
     hartree contribution      =      70.43017434 Ry
     xc contribution           =     -14.50389033 Ry
     ewald contribution        =      16.63246005 Ry
     one-center paw contrib.   =     -19.19668279 Ry
      -> PAW hartree energy AE =      50.50711159 Ry
      -> PAW hartree energy PS =     -50.44020535 Ry
      -> PAW xc energy AE      =     -33.17534399 Ry
      -> PAW xc energy PS      =      13.91175497 Ry
      -> total E_H with PAW    =      70.49708057 Ry
      -> total E_XC with PAW   =     -33.76747935 Ry

     total magnetization       =     2.00 Bohr mag/cell
     absolute magnetization    =     2.05 Bohr mag/cell

     convergence has been achieved in   3 iterations

     negative rho (up, down):  2.020E-03 1.160E-03

     Forces acting on atoms (cartesian axes, Ry/au):

     atom    1 type  1   force =     0.00000000    0.00000000    0.00029225
     atom    2 type  1   force =     0.00000000    0.00000000   -0.00029225
     The non-local contrib.  to forces
     atom    1 type  1   force =     0.00000000    0.00000000    2.70252405
     atom    2 type  1   force =     0.00000000    0.00000000   -2.70262356
     The ionic contribution  to forces
     atom    1 type  1   force =    -0.00000000   -0.00000000  -13.32462243
     atom    2 type  1   force =     0.00000000    0.00000000   13.32462243
     The local contribution  to forces
     atom    1 type  1   force =     0.00000000    0.00000000   10.64534816
     atom    2 type  1   force =     0.00000000    0.00000000  -10.64547920
     The core correction contribution to forces
     atom    1 type  1   force =    -0.00000000   -0.00000000   -0.02302667
     atom    2 type  1   force =    -0.00000000   -0.00000000    0.02302538
     The Hubbard contrib.    to forces
     atom    1 type  1   force =     0.00000000    0.00000000    0.00000000
     atom    2 type  1   force =     0.00000000    0.00000000    0.00000000
     The SCF correction term to forces
     atom    1 type  1   force =    -0.00000000   -0.00000000    0.00002083
     atom    2 type  1   force =    -0.00000000   -0.00000000    0.00011439

     Total force =     0.000413     Total SCF correction =     0.000116
     SCF correction compared to forces is large: reduce conv_thr to get better values
     Energy error            =      4.9E-06 Ry
     Gradient error          =      2.9E-04 Ry/Bohr

     bfgs converged in   3 scf cycles and   1 bfgs steps
     (criteria: energy <  1.0E-04 Ry, force <  1.0E-03 Ry/Bohr)

     End of BFGS Geometry Optimization

     Final energy             =     -83.0392095769 Ry

     File ./tmp/calc_O2_Ref.bfgs deleted, as requested
Begin final coordinates

ATOMIC_POSITIONS (angstrom)
O                7.5000000000        7.5000000000        7.5006731661
O                7.5000000000        7.5000000000        8.7293268339
End final coordinates


     Message from routine punch:
     Nothing written, as per user request (disk_io='none')
 
     init_run     :     23.39s CPU     16.31s WALL (       1 calls)
     electrons    :    100.59s CPU    116.17s WALL (       3 calls)
     update_pot   :      2.53s CPU      2.35s WALL (       2 calls)
     forces       :      1.94s CPU      2.26s WALL (       3 calls)

     Called by init_run:
     wfcinit      :      0.24s CPU      0.29s WALL (       1 calls)
     wfcinit:atom :      0.00s CPU      0.00s WALL (       2 calls)
     wfcinit:wfcr :      0.19s CPU      0.21s WALL (       2 calls)
     potinit      :     17.35s CPU      8.96s WALL (       1 calls)
     hinit0       :      1.25s CPU      1.51s WALL (       1 calls)

     Called by electrons:
     c_bands      :      5.09s CPU      5.32s WALL (      29 calls)
     sum_band     :     23.36s CPU     31.26s WALL (      29 calls)
     v_of_rho     :     11.89s CPU     16.61s WALL (      31 calls)
     v_h          :      5.34s CPU      9.88s WALL (      31 calls)
     v_xc         :      7.30s CPU      7.79s WALL (      34 calls)
     newd         :      2.51s CPU      2.52s WALL (      31 calls)
                                        2.52s GPU  (      31 calls)
     PAW_pot      :     12.73s CPU      4.97s WALL (      33 calls)
     mix_rho      :     22.73s CPU     33.07s WALL (      29 calls)

     Called by c_bands:
     init_us_2    :      0.11s CPU      0.11s WALL (     128 calls)
     cegterg      :      3.79s CPU      3.83s WALL (      58 calls)

     Called by sum_band:
     sum_band:wei :      0.00s CPU      0.00s WALL (      29 calls)
                                        0.00s GPU  (      29 calls)
     sum_band:loo :      1.65s CPU      1.66s WALL (      29 calls)
                                        1.66s GPU  (      29 calls)
     sum_band:buf :      0.56s CPU      0.56s WALL (      58 calls)
                                        0.56s GPU  (      58 calls)
     sum_band:ini :      0.04s CPU      0.04s WALL (      58 calls)
                                        0.04s GPU  (      58 calls)
     sum_band:cal :      0.21s CPU      0.12s WALL (      62 calls)
                                        0.01s GPU  (      58 calls)
     sum_band:bec :      0.02s CPU      0.02s WALL (      62 calls)
                                        0.02s GPU  (      58 calls)
     addusdens    :      4.69s CPU      7.62s WALL (      29 calls)
                                        7.62s GPU  (      29 calls)
     addusd:skk   :      0.01s CPU      0.01s WALL (      29 calls)
                                        0.01s GPU  (      29 calls)

     Called by *egterg:
     cdiaghg      :      0.14s CPU      0.16s WALL (     322 calls)
                                        0.16s GPU  (     322 calls)
     cegterg:over :      0.14s CPU      0.15s WALL (     270 calls)
     cegterg:upda :      0.13s CPU      0.13s WALL (     270 calls)
     cegterg:last :      0.11s CPU      0.11s WALL (     153 calls)
     h_psi        :      3.01s CPU      3.03s WALL (     330 calls)
                                        3.03s GPU  (     330 calls)
     s_psi        :      0.05s CPU      0.05s WALL (     330 calls)
     g_psi        :      0.00s CPU      0.05s WALL (     270 calls)
                                        0.04s GPU  (     270 calls)

     Called by h_psi:
     h_psi:calbec :      0.02s CPU      0.06s WALL (     330 calls)
                                        0.06s GPU  (     330 calls)
     vloc_psi     :      2.48s CPU      2.50s WALL (     330 calls)
                                        2.50s GPU  (     330 calls)
     add_vuspsi   :      0.04s CPU      0.09s WALL (     330 calls)
                                        0.09s GPU  (     330 calls)

     General routines
     calbec       :      0.16s CPU      0.06s WALL (     416 calls)
     fft          :     21.58s CPU      9.22s WALL (     818 calls)
                                        0.93s GPU  (     756 calls)
     ffts         :      7.20s CPU      2.92s WALL (     120 calls)
                                        0.03s GPU  (      58 calls)
     fftw         :      0.13s CPU      1.98s WALL (     718 calls)
                                        1.98s GPU  (     718 calls)
     interpolate  :     34.59s CPU     24.70s WALL (      62 calls)
 
     Parallel routines

     PAW routines
     PAW_pot      :     12.73s CPU      4.97s WALL (      33 calls)
     PAW_symme    :      0.00s CPU      0.00s WALL (      62 calls)
 
     PWSCF        :   2m12.67s CPU   2m20.94s WALL

 
   This run was terminated on:   4:32:31  26Jan2026            

=------------------------------------------------------------------------------=
   JOB DONE.
=------------------------------------------------------------------------------=
Warning: ieee_invalid is signaling
Warning: ieee_divide_by_zero is signaling
Warning: ieee_inexact is signaling
FORTRAN STOP
