level=info msg="Setting CUDA_MODULE_LOADING=LAZY. Please see https://docs.nvidia.com for more information."

     Program PWSCF v.7.3.1 starts on 26Jan2026 at  4:33: 7 

     This program is part of the open-source Quantum ESPRESSO suite
     for quantum simulation of materials; please cite
         "P. Giannozzi et al., J. Phys.:Condens. Matter 21 395502 (2009);
         "P. Giannozzi et al., J. Phys.:Condens. Matter 29 465901 (2017);
         "P. Giannozzi et al., J. Chem. Phys. 152 154105 (2020);
          URL http://www.quantum-espresso.org", 
     in publications or presentations arising from this work. More details at
     http://www.quantum-espresso.org/quote

     Parallel version (MPI & OpenMP), running on       4 processor cores
     Number of MPI processes:                 1
     Threads/MPI process:                     4

     MPI processes distributed on     1 nodes
     20878 MiB available memory on the printing compute node when the environment starts
 
     Reading input from ./FullRun_20260126_1230/10ScSZ_Perfect/espresso.pwi
Warning: card &CELL ignored
Warning: card / ignored
Warning: card &FCP ignored
Warning: card / ignored
Warning: card &RISM ignored
Warning: card / ignored

     Current dimensions of program PWSCF are:
     Max number of different atomic species (ntypx) = 10
     Max number of k-points (npk) =  40000
     Max angular momentum in pseudopotentials (lmaxx) =  4
     file Zr.pbe-spn-kjpaw_psl.1.0.0.UPF: wavefunction(s)  4S 4P renormalized
     file O.pbe-n-kjpaw_psl.1.0.0.UPF: wavefunction(s)  2S 2P renormalized
     file Sc.pbe-spn-kjpaw_psl.1.0.0.UPF: wavefunction(s)  3S 3P 3D renormalized
 
     Subspace diagonalization in iterative solution of the eigenvalue problem:
     a serial algorithm will be used

 
     G-vector sticks info
     --------------------
     sticks:   dense  smooth     PW     G-vecs:    dense   smooth      PW
     Sum       14337    7153   1925              1290383   456055   63461
 
     Using Slab Decomposition
 


     bravais-lattice index     =            0
     lattice parameter (alat)  =      19.3697  a.u.
     unit-cell volume          =    7267.2182 (a.u.)^3
     number of atoms/cell      =           96
     number of atomic types    =            3
     number of electrons       =       762.00
     number of Kohn-Sham states=          457
     kinetic-energy cutoff     =      60.0000  Ry
     charge density cutoff     =     480.0000  Ry
     scf convergence threshold =      1.0E-06
     mixing beta               =       0.3000
     number of iterations used =            8  plain     mixing
     energy convergence thresh.=      1.0E-04
     force convergence thresh. =      1.0E-03
     Exchange-correlation= SLA  PW   PBX  PBC
                           (   1   4   3   4   0   0   0)
     nstep                     =          100


     GPU acceleration is ACTIVE.  1 visible GPUs per MPI rank
     GPU-aware MPI enabled


     GPU used by master process:

        Device Number: 0
        Device name: Tesla V100-SXM2-16GB
        Compute capability : 70
        Ratio of single to double precision performance  : 2
        Memory Clock Rate (KHz): 877000
        Memory Bus Width (bits): 4096
        Peak Memory Bandwidth (GB/s): 898.05

     celldm(1)=  19.369693  celldm(2)=   0.000000  celldm(3)=   0.000000
     celldm(4)=   0.000000  celldm(5)=   0.000000  celldm(6)=   0.000000

     crystal axes: (cart. coord. in units of alat)
               a(1) = (   1.000000   0.000000   0.000000 )  
               a(2) = (   0.000000   1.000000   0.000000 )  
               a(3) = (   0.000000   0.000000   1.000000 )  

     reciprocal axes: (cart. coord. in units 2 pi/alat)
               b(1) = (  1.000000  0.000000  0.000000 )  
               b(2) = (  0.000000  1.000000  0.000000 )  
               b(3) = (  0.000000  0.000000  1.000000 )  


     PseudoPot. # 1 for Zr read from file:
     ./pseudos/Zr.pbe-spn-kjpaw_psl.1.0.0.UPF
     MD5 check sum: 02112c41713a0468aff2bb39ef194e36
     Pseudo is Projector augmented-wave + core cor, Zval = 12.0
     Generated using &quot;atomic&quot; code by A. Dal Corso  v.6.2.2
     Shape of augmentation charge: PSQ
     Using radial grid of 1225 points,  6 beta functions with: 
                l(1) =   0
                l(2) =   0
                l(3) =   1
                l(4) =   1
                l(5) =   2
                l(6) =   2
     Q(r) pseudized with 0 coefficients 


     PseudoPot. # 2 for O  read from file:
     ./pseudos/O.pbe-n-kjpaw_psl.1.0.0.UPF
     MD5 check sum: e99d9cef9b487d1ca56f5b95ecd0fd7a
     Pseudo is Projector augmented-wave + core cor, Zval =  6.0
     Generated using &quot;atomic&quot; code by A. Dal Corso  v.6.3
     Shape of augmentation charge: PSQ
     Using radial grid of 1095 points,  4 beta functions with: 
                l(1) =   0
                l(2) =   0
                l(3) =   1
                l(4) =   1
     Q(r) pseudized with 0 coefficients 


     PseudoPot. # 3 for Sc read from file:
     ./pseudos/Sc.pbe-spn-kjpaw_psl.1.0.0.UPF
     MD5 check sum: d5ac433e587a0148d610ca85a1be5559
     Pseudo is Projector augmented-wave + core cor, Zval = 11.0
     Generated using &quot;atomic&quot; code by A. Dal Corso  v.6.2.2
     Shape of augmentation charge: PSQ
     Using radial grid of 1173 points,  6 beta functions with: 
                l(1) =   0
                l(2) =   0
                l(3) =   1
                l(4) =   1
                l(5) =   2
                l(6) =   2
     Q(r) pseudized with 0 coefficients 


     atomic species   valence    mass     pseudopotential
     Zr               12.00    91.22400     Zr( 1.00)
     O                 6.00    15.99900     O ( 1.00)
     Sc               11.00    44.95591     Sc( 1.00)

     No symmetry found


                                    s                        frac. trans.

      isym =  1     identity                                     

 cryst.   s( 1) = (     1          0          0      )
                  (     0          1          0      )
                  (     0          0          1      )

 cart.    s( 1) = (  1.0000000  0.0000000  0.0000000 )
                  (  0.0000000  1.0000000  0.0000000 )
                  (  0.0000000  0.0000000  1.0000000 )


   Cartesian axes

     site n.     atom                  positions (alat units)
         1        Zr     tau(   1) = (   0.0004846  -0.0001349   0.0006319  )
         2        O      tau(   2) = (   0.1264859   0.1247716   0.1247716  )
         3        O      tau(   3) = (   0.3765407   0.3757487   0.3745420  )
         4        Zr     tau(   4) = (   0.0005293   0.2495479   0.2495456  )
         5        O      tau(   5) = (   0.1252361   0.3731334   0.3733172  )
         6        O      tau(   6) = (   0.3744514   0.1240119   0.1253066  )
         7        Zr     tau(   7) = (   0.2491141  -0.0013779   0.2514299  )
         8        O      tau(   8) = (   0.3747797   0.1250659   0.3736100  )
         9        O      tau(   9) = (   0.1244689   0.3751082   0.1238771  )
        10        Zr     tau(  10) = (   0.2503665   0.2494140  -0.0002846  )
        11        O      tau(  11) = (   0.3744130   0.3768071   0.1249868  )
        12        O      tau(  12) = (   0.1239681   0.1258025   0.3738089  )
        13        Zr     tau(  13) = (   0.0002038  -0.0019119   0.4987042  )
        14        O      tau(  14) = (   0.1251921   0.1257205   0.6251672  )
        15        O      tau(  15) = (   0.3748872   0.3747062   0.8735575  )
        16        Zr     tau(  16) = (  -0.0007023   0.2495506   0.7510313  )
        17        O      tau(  17) = (   0.1253352   0.3732800   0.8753162  )
        18        O      tau(  18) = (   0.3746243   0.1243396   0.6255968  )
        19        Zr     tau(  19) = (   0.2510059   0.0009086   0.7491813  )
        20        O      tau(  20) = (   0.3746983   0.1253232   0.8759518  )
        21        O      tau(  21) = (   0.1245325   0.3748189   0.6239206  )
        22        Zr     tau(  22) = (   0.2488330   0.2507927   0.5013232  )
        23        O      tau(  23) = (   0.3749297   0.3759791   0.6253528  )
        24        O      tau(  24) = (   0.1243706   0.1253526   0.8765005  )
        25        Zr     tau(  25) = (  -0.0000350   0.5015265  -0.0025558  )
        26        O      tau(  26) = (   0.1258019   0.6250849   0.1247083  )
        27        O      tau(  27) = (   0.3750895   0.8730609   0.3747857  )
        28        Sc     tau(  28) = (   0.0003484   0.7514418   0.2494944  )
        29        O      tau(  29) = (   0.1242112   0.8745105   0.3758931  )
        30        O      tau(  30) = (   0.3753207   0.6244832   0.1255007  )
        31        Sc     tau(  31) = (   0.2500947   0.5009450   0.2493151  )
        32        O      tau(  32) = (   0.3746803   0.6246175   0.3735722  )
        33        O      tau(  33) = (   0.1252889   0.8752547   0.1250050  )
        34        Sc     tau(  34) = (   0.2497711   0.7486192  -0.0004104  )
        35        O      tau(  35) = (   0.3746656   0.8742173   0.1248426  )
        36        O      tau(  36) = (   0.1253942   0.6268402   0.3751703  )
        37        Zr     tau(  37) = (   0.0002513   0.4999274   0.4981280  )
        38        O      tau(  38) = (   0.1249741   0.6250588   0.6274032  )
        39        O      tau(  39) = (   0.3748123   0.8752942   0.8749661  )
        40        Zr     tau(  40) = (  -0.0011402   0.7511149   0.7507336  )
        41        O      tau(  41) = (   0.1257717   0.8741128   0.8763686  )
        42        O      tau(  42) = (   0.3736323   0.6255725   0.6271370  )
        43        Zr     tau(  43) = (   0.2490336   0.4994475   0.7500972  )
        44        O      tau(  44) = (   0.3745088   0.6234872   0.8750669  )
        45        O      tau(  45) = (   0.1239636   0.8754620   0.6241030  )
        46        Sc     tau(  46) = (   0.2515121   0.7492359   0.4996858  )
        47        O      tau(  47) = (   0.3757937   0.8737992   0.6252219  )
        48        O      tau(  48) = (   0.1262753   0.6234317   0.8751801  )
        49        Zr     tau(  49) = (   0.5002535   0.0007628  -0.0012068  )
        50        O      tau(  50) = (   0.6237117   0.1255092   0.1252897  )
        51        O      tau(  51) = (   0.8752444   0.3753380   0.3743366  )
        52        Zr     tau(  52) = (   0.5002266   0.2502859   0.2493031  )
        53        O      tau(  53) = (   0.6268203   0.3754623   0.3738378  )
        54        O      tau(  54) = (   0.8756405   0.1240491   0.1257679  )
        55        Sc     tau(  55) = (   0.7511303  -0.0008007   0.2509399  )
        56        O      tau(  56) = (   0.8754027   0.1258020   0.3768505  )
        57        O      tau(  57) = (   0.6247606   0.3742646   0.1241322  )
        58        Zr     tau(  58) = (   0.7492041   0.2499248   0.0003328  )
        59        O      tau(  59) = (   0.8752699   0.3758070   0.1250127  )
        60        O      tau(  60) = (   0.6264181   0.1247418   0.3776538  )
        61        Zr     tau(  61) = (   0.5006104  -0.0008363   0.4989552  )
        62        O      tau(  62) = (   0.6254707   0.1247820   0.6256966  )
        63        O      tau(  63) = (   0.8754617   0.3749289   0.8741739  )
        64        Zr     tau(  64) = (   0.4985221   0.2495644   0.7508355  )
        65        O      tau(  65) = (   0.6252089   0.3737846   0.8751690  )
        66        O      tau(  66) = (   0.8753759   0.1241377   0.6251500  )
        67        Zr     tau(  67) = (   0.7500568  -0.0011151   0.7503491  )
        68        O      tau(  68) = (   0.8755471   0.1260566   0.8760281  )
        69        O      tau(  69) = (   0.6236559   0.3740850   0.6255025  )
        70        Zr     tau(  70) = (   0.7505013   0.2505025   0.5037588  )
        71        O      tau(  71) = (   0.8755570   0.3761079   0.6259307  )
        72        O      tau(  72) = (   0.6256355   0.1246924   0.8757405  )
        73        Zr     tau(  73) = (   0.4992460   0.4997690  -0.0004735  )
        74        O      tau(  74) = (   0.6250799   0.6272582   0.1231783  )
        75        O      tau(  75) = (   0.8756695   0.8734266   0.3745396  )
        76        Zr     tau(  76) = (   0.5010624   0.7500627   0.2489485  )
        77        O      tau(  77) = (   0.6243021   0.8756630   0.3742874  )
        78        O      tau(  78) = (   0.8752112   0.6250445   0.1243643  )
        79        Zr     tau(  79) = (   0.7520917   0.5006185   0.2480243  )
        80        O      tau(  80) = (   0.8751819   0.6243544   0.3758316  )
        81        O      tau(  81) = (   0.6242268   0.8748881   0.1254927  )
        82        Zr     tau(  82) = (   0.7508446   0.7488290  -0.0003263  )
        83        O      tau(  83) = (   0.8745366   0.8743626   0.1267224  )
        84        O      tau(  84) = (   0.6253951   0.6237699   0.3758955  )
        85        Zr     tau(  85) = (   0.5020704   0.5010073   0.4985177  )
        86        O      tau(  86) = (   0.6245276   0.6262360   0.6243096  )
        87        O      tau(  87) = (   0.8754330   0.8757557   0.8740957  )
        88        Sc     tau(  88) = (   0.4999419   0.7468378   0.7490006  )
        89        O      tau(  89) = (   0.6247536   0.8737827   0.8765926  )
        90        O      tau(  90) = (   0.8736047   0.6245707   0.6251276  )
        91        Zr     tau(  91) = (   0.7514061   0.4985992   0.7511348  )
        92        O      tau(  92) = (   0.8750100   0.6240424   0.8754508  )
        93        O      tau(  93) = (   0.6251942   0.8744144   0.6250681  )
        94        Zr     tau(  94) = (   0.7496241   0.7501107   0.5006460  )
        95        O      tau(  95) = (   0.8765473   0.8737924   0.6270810  )
        96        O      tau(  96) = (   0.6230955   0.6248519   0.8755740  )

   Crystallographic axes

     site n.     atom                  positions (cryst. coord.)
         1        Zr     tau(   1) = (  0.0004846 -0.0001349  0.0006319  )
         2        O      tau(   2) = (  0.1264859  0.1247716  0.1247716  )
         3        O      tau(   3) = (  0.3765407  0.3757487  0.3745420  )
         4        Zr     tau(   4) = (  0.0005293  0.2495479  0.2495456  )
         5        O      tau(   5) = (  0.1252361  0.3731334  0.3733172  )
         6        O      tau(   6) = (  0.3744514  0.1240119  0.1253066  )
         7        Zr     tau(   7) = (  0.2491141 -0.0013779  0.2514299  )
         8        O      tau(   8) = (  0.3747797  0.1250659  0.3736100  )
         9        O      tau(   9) = (  0.1244689  0.3751082  0.1238771  )
        10        Zr     tau(  10) = (  0.2503665  0.2494140 -0.0002846  )
        11        O      tau(  11) = (  0.3744130  0.3768071  0.1249868  )
        12        O      tau(  12) = (  0.1239681  0.1258025  0.3738089  )
        13        Zr     tau(  13) = (  0.0002038 -0.0019119  0.4987042  )
        14        O      tau(  14) = (  0.1251921  0.1257205  0.6251672  )
        15        O      tau(  15) = (  0.3748872  0.3747062  0.8735575  )
        16        Zr     tau(  16) = ( -0.0007023  0.2495506  0.7510313  )
        17        O      tau(  17) = (  0.1253352  0.3732800  0.8753162  )
        18        O      tau(  18) = (  0.3746243  0.1243396  0.6255968  )
        19        Zr     tau(  19) = (  0.2510059  0.0009086  0.7491813  )
        20        O      tau(  20) = (  0.3746983  0.1253232  0.8759518  )
        21        O      tau(  21) = (  0.1245325  0.3748189  0.6239206  )
        22        Zr     tau(  22) = (  0.2488330  0.2507927  0.5013232  )
        23        O      tau(  23) = (  0.3749297  0.3759791  0.6253528  )
        24        O      tau(  24) = (  0.1243706  0.1253526  0.8765005  )
        25        Zr     tau(  25) = ( -0.0000350  0.5015265 -0.0025558  )
        26        O      tau(  26) = (  0.1258019  0.6250849  0.1247083  )
        27        O      tau(  27) = (  0.3750895  0.8730609  0.3747857  )
        28        Sc     tau(  28) = (  0.0003484  0.7514418  0.2494944  )
        29        O      tau(  29) = (  0.1242112  0.8745105  0.3758931  )
        30        O      tau(  30) = (  0.3753207  0.6244832  0.1255007  )
        31        Sc     tau(  31) = (  0.2500947  0.5009450  0.2493151  )
        32        O      tau(  32) = (  0.3746803  0.6246175  0.3735722  )
        33        O      tau(  33) = (  0.1252889  0.8752547  0.1250050  )
        34        Sc     tau(  34) = (  0.2497711  0.7486192 -0.0004104  )
        35        O      tau(  35) = (  0.3746656  0.8742173  0.1248426  )
        36        O      tau(  36) = (  0.1253942  0.6268402  0.3751703  )
        37        Zr     tau(  37) = (  0.0002513  0.4999274  0.4981280  )
        38        O      tau(  38) = (  0.1249741  0.6250588  0.6274032  )
        39        O      tau(  39) = (  0.3748123  0.8752942  0.8749661  )
        40        Zr     tau(  40) = ( -0.0011402  0.7511149  0.7507336  )
        41        O      tau(  41) = (  0.1257717  0.8741128  0.8763686  )
        42        O      tau(  42) = (  0.3736323  0.6255725  0.6271370  )
        43        Zr     tau(  43) = (  0.2490336  0.4994475  0.7500972  )
        44        O      tau(  44) = (  0.3745088  0.6234872  0.8750669  )
        45        O      tau(  45) = (  0.1239636  0.8754620  0.6241030  )
        46        Sc     tau(  46) = (  0.2515121  0.7492359  0.4996858  )
        47        O      tau(  47) = (  0.3757937  0.8737992  0.6252219  )
        48        O      tau(  48) = (  0.1262753  0.6234317  0.8751801  )
        49        Zr     tau(  49) = (  0.5002535  0.0007628 -0.0012068  )
        50        O      tau(  50) = (  0.6237117  0.1255092  0.1252897  )
        51        O      tau(  51) = (  0.8752444  0.3753380  0.3743366  )
        52        Zr     tau(  52) = (  0.5002266  0.2502859  0.2493031  )
        53        O      tau(  53) = (  0.6268203  0.3754623  0.3738378  )
        54        O      tau(  54) = (  0.8756405  0.1240491  0.1257679  )
        55        Sc     tau(  55) = (  0.7511303 -0.0008007  0.2509399  )
        56        O      tau(  56) = (  0.8754027  0.1258020  0.3768505  )
        57        O      tau(  57) = (  0.6247606  0.3742646  0.1241322  )
        58        Zr     tau(  58) = (  0.7492041  0.2499248  0.0003328  )
        59        O      tau(  59) = (  0.8752699  0.3758070  0.1250127  )
        60        O      tau(  60) = (  0.6264181  0.1247418  0.3776538  )
        61        Zr     tau(  61) = (  0.5006104 -0.0008363  0.4989552  )
        62        O      tau(  62) = (  0.6254707  0.1247820  0.6256966  )
        63        O      tau(  63) = (  0.8754617  0.3749289  0.8741739  )
        64        Zr     tau(  64) = (  0.4985221  0.2495644  0.7508355  )
        65        O      tau(  65) = (  0.6252089  0.3737846  0.8751690  )
        66        O      tau(  66) = (  0.8753759  0.1241377  0.6251500  )
        67        Zr     tau(  67) = (  0.7500568 -0.0011151  0.7503491  )
        68        O      tau(  68) = (  0.8755471  0.1260566  0.8760281  )
        69        O      tau(  69) = (  0.6236559  0.3740850  0.6255025  )
        70        Zr     tau(  70) = (  0.7505013  0.2505025  0.5037588  )
        71        O      tau(  71) = (  0.8755570  0.3761079  0.6259307  )
        72        O      tau(  72) = (  0.6256355  0.1246924  0.8757405  )
        73        Zr     tau(  73) = (  0.4992460  0.4997690 -0.0004735  )
        74        O      tau(  74) = (  0.6250799  0.6272582  0.1231783  )
        75        O      tau(  75) = (  0.8756695  0.8734266  0.3745396  )
        76        Zr     tau(  76) = (  0.5010624  0.7500627  0.2489485  )
        77        O      tau(  77) = (  0.6243021  0.8756630  0.3742874  )
        78        O      tau(  78) = (  0.8752112  0.6250445  0.1243643  )
        79        Zr     tau(  79) = (  0.7520917  0.5006185  0.2480243  )
        80        O      tau(  80) = (  0.8751819  0.6243544  0.3758316  )
        81        O      tau(  81) = (  0.6242268  0.8748881  0.1254927  )
        82        Zr     tau(  82) = (  0.7508446  0.7488290 -0.0003263  )
        83        O      tau(  83) = (  0.8745366  0.8743626  0.1267224  )
        84        O      tau(  84) = (  0.6253951  0.6237699  0.3758955  )
        85        Zr     tau(  85) = (  0.5020704  0.5010073  0.4985177  )
        86        O      tau(  86) = (  0.6245276  0.6262360  0.6243096  )
        87        O      tau(  87) = (  0.8754330  0.8757557  0.8740957  )
        88        Sc     tau(  88) = (  0.4999419  0.7468378  0.7490006  )
        89        O      tau(  89) = (  0.6247536  0.8737827  0.8765926  )
        90        O      tau(  90) = (  0.8736047  0.6245707  0.6251276  )
        91        Zr     tau(  91) = (  0.7514061  0.4985992  0.7511348  )
        92        O      tau(  92) = (  0.8750100  0.6240424  0.8754508  )
        93        O      tau(  93) = (  0.6251942  0.8744144  0.6250681  )
        94        Zr     tau(  94) = (  0.7496241  0.7501107  0.5006460  )
        95        O      tau(  95) = (  0.8765473  0.8737924  0.6270810  )
        96        O      tau(  96) = (  0.6230955  0.6248519  0.8755740  )

     number of k points=     8  Gaussian smearing, width (Ry)=  0.0050
                       cart. coord. in units 2pi/alat
        k(    1) = (   0.0000000   0.0000000   0.0000000), wk =   0.2500000
        k(    2) = (   0.0000000   0.0000000  -0.5000000), wk =   0.2500000
        k(    3) = (   0.0000000  -0.5000000  -0.5000000), wk =   0.2500000
        k(    4) = (  -0.5000000  -0.5000000  -0.5000000), wk =   0.2500000
        k(    5) = (  -0.5000000   0.0000000   0.0000000), wk =   0.2500000
        k(    6) = (   0.0000000  -0.5000000   0.0000000), wk =   0.2500000
        k(    7) = (  -0.5000000   0.0000000   0.5000000), wk =   0.2500000
        k(    8) = (  -0.5000000   0.5000000   0.0000000), wk =   0.2500000

                       cryst. coord.
        k(    1) = (   0.0000000   0.0000000   0.0000000), wk =   0.2500000
        k(    2) = (   0.0000000   0.0000000  -0.5000000), wk =   0.2500000
        k(    3) = (   0.0000000  -0.5000000  -0.5000000), wk =   0.2500000
        k(    4) = (  -0.5000000  -0.5000000  -0.5000000), wk =   0.2500000
        k(    5) = (  -0.5000000   0.0000000   0.0000000), wk =   0.2500000
        k(    6) = (   0.0000000  -0.5000000   0.0000000), wk =   0.2500000
        k(    7) = (  -0.5000000   0.0000000   0.5000000), wk =   0.2500000
        k(    8) = (  -0.5000000   0.5000000   0.0000000), wk =   0.2500000

     Dense  grid:  1290383 G-vectors     FFT dimensions: ( 135, 135, 135)

     Smooth grid:   456055 G-vectors     FFT dimensions: (  96,  96,  96)

     Dynamical RAM for                 wfc:     397.72 MB

     Dynamical RAM for     wfc (w. buffer):    3579.48 MB

     Dynamical RAM for           str. fact:      59.07 MB

     Dynamical RAM for           local pot:       0.00 MB

     Dynamical RAM for          nlocal pot:     946.87 MB

     Dynamical RAM for                qrad:       5.27 MB

     Dynamical RAM for          rho,v,vnew:     115.38 MB

     Dynamical RAM for               rhoin:      38.46 MB

     Dynamical RAM for            rho*nmix:     315.03 MB

     Dynamical RAM for           G-vectors:      77.32 MB

     Dynamical RAM for          h,s,v(r/c):      38.24 MB

     Dynamical RAM for          <psi|beta>:       7.59 MB

     Dynamical RAM for                 psi:     795.44 MB

     Dynamical RAM for                hpsi:     795.44 MB

     Dynamical RAM for                spsi:     795.44 MB

     Dynamical RAM for      wfcinit/wfcrot:    1148.13 MB

     Dynamical RAM for           addusdens:    4922.42 MB

     Dynamical RAM for          addusforce:    7413.42 MB

     Estimated static dynamical RAM per process >       4.88 GB

     Estimated max dynamical RAM per process >      12.42 GB

     Check: negative core charge=   -0.000002

     Initial potential from superposition of free atoms

     starting charge     761.9286, renormalised to     762.0000
     Starting wfcs are  654 randomized atomic wfcs
     Checking if some PAW data can be deallocated... 

     total cpu time spent up to now is       24.6 secs

     Self-consistent Calculation
[tb_dev] Currently allocated     3.85E+01 Mbytes, locked:    0 /   6
[tb_pin] Currently allocated     0.00E+00 Mbytes, locked:    0 /   0

     iteration #  1     ecut=    60.00 Ry     beta= 0.30
     Davidson diagonalization with overlap

---- Real-time Memory Report at c_bands before calling an iterative solver
          5392 MiB given to the printing process from OS
             0 MiB allocation reported by mallinfo(arena+hblkhd)
         15817 MiB available memory on the node where the printing process lives
     GPU memory used/free/total (MiB): 9732 / 6411 / 16144
------------------
     ethr =  1.00E-02,  avg # of iterations =  2.0

     total cpu time spent up to now is       45.6 secs

     total energy              =  -11601.41688792 Ry
     estimated scf accuracy    <      35.58794888 Ry
[tb_dev] Currently allocated     7.32E-04 Mbytes, locked:    0 /   2
[tb_pin] Currently allocated     0.00E+00 Mbytes, locked:    0 /   0

     iteration #  2     ecut=    60.00 Ry     beta= 0.30
     Davidson diagonalization with overlap

---- Real-time Memory Report at c_bands before calling an iterative solver
          5513 MiB given to the printing process from OS
             0 MiB allocation reported by mallinfo(arena+hblkhd)
         15692 MiB available memory on the node where the printing process lives
     GPU memory used/free/total (MiB): 11510 / 4633 / 16144
------------------
     ethr =  4.67E-03,  avg # of iterations =  2.0

     total cpu time spent up to now is       67.4 secs

     total energy              =  -11604.43973814 Ry
     estimated scf accuracy    <       5.22055661 Ry
[tb_dev] Currently allocated     7.32E-04 Mbytes, locked:    0 /   2
[tb_pin] Currently allocated     0.00E+00 Mbytes, locked:    0 /   0

     iteration #  3     ecut=    60.00 Ry     beta= 0.30
     Davidson diagonalization with overlap

---- Real-time Memory Report at c_bands before calling an iterative solver
          5529 MiB given to the printing process from OS
             0 MiB allocation reported by mallinfo(arena+hblkhd)
         15675 MiB available memory on the node where the printing process lives
     GPU memory used/free/total (MiB): 11742 / 4401 / 16144
------------------
     ethr =  6.85E-04,  avg # of iterations =  8.1

     total cpu time spent up to now is       97.6 secs

     total energy              =  -11609.26427999 Ry
     estimated scf accuracy    <       9.97038651 Ry
[tb_dev] Currently allocated     7.32E-04 Mbytes, locked:    0 /   2
[tb_pin] Currently allocated     0.00E+00 Mbytes, locked:    0 /   0

     iteration #  4     ecut=    60.00 Ry     beta= 0.30
     Davidson diagonalization with overlap

---- Real-time Memory Report at c_bands before calling an iterative solver
          5557 MiB given to the printing process from OS
             0 MiB allocation reported by mallinfo(arena+hblkhd)
         15651 MiB available memory on the node where the printing process lives
     GPU memory used/free/total (MiB): 12590 / 3553 / 16144
------------------
     ethr =  6.85E-04,  avg # of iterations =  1.0

     total cpu time spent up to now is      117.7 secs

     total energy              =  -11609.29896495 Ry
     estimated scf accuracy    <       3.23328752 Ry
[tb_dev] Currently allocated     7.32E-04 Mbytes, locked:    0 /   2
[tb_pin] Currently allocated     0.00E+00 Mbytes, locked:    0 /   0

     iteration #  5     ecut=    60.00 Ry     beta= 0.30
     Davidson diagonalization with overlap

---- Real-time Memory Report at c_bands before calling an iterative solver
          5573 MiB given to the printing process from OS
             0 MiB allocation reported by mallinfo(arena+hblkhd)
         15622 MiB available memory on the node where the printing process lives
     GPU memory used/free/total (MiB): 12590 / 3553 / 16144
------------------
     ethr =  4.24E-04,  avg # of iterations =  2.0

     total cpu time spent up to now is      138.5 secs

     total energy              =  -11608.86556736 Ry
     estimated scf accuracy    <       1.48249069 Ry
[tb_dev] Currently allocated     7.32E-04 Mbytes, locked:    0 /   2
[tb_pin] Currently allocated     0.00E+00 Mbytes, locked:    0 /   0

     iteration #  6     ecut=    60.00 Ry     beta= 0.30
     Davidson diagonalization with overlap

---- Real-time Memory Report at c_bands before calling an iterative solver
          5598 MiB given to the printing process from OS
             0 MiB allocation reported by mallinfo(arena+hblkhd)
         15590 MiB available memory on the node where the printing process lives
     GPU memory used/free/total (MiB): 12590 / 3553 / 16144
------------------
     ethr =  1.95E-04,  avg # of iterations =  5.9

     total cpu time spent up to now is      161.8 secs

     total energy              =  -11609.11260605 Ry
     estimated scf accuracy    <       2.33847789 Ry
[tb_dev] Currently allocated     7.32E-04 Mbytes, locked:    0 /   2
[tb_pin] Currently allocated     0.00E+00 Mbytes, locked:    0 /   0

     iteration #  7     ecut=    60.00 Ry     beta= 0.30
     Davidson diagonalization with overlap

---- Real-time Memory Report at c_bands before calling an iterative solver
          5627 MiB given to the printing process from OS
             0 MiB allocation reported by mallinfo(arena+hblkhd)
         15563 MiB available memory on the node where the printing process lives
     GPU memory used/free/total (MiB): 12590 / 3553 / 16144
------------------
     ethr =  1.95E-04,  avg # of iterations =  2.0

     total cpu time spent up to now is      182.7 secs

     total energy              =  -11609.29068149 Ry
     estimated scf accuracy    <       0.39933557 Ry
[tb_dev] Currently allocated     7.32E-04 Mbytes, locked:    0 /   2
[tb_pin] Currently allocated     0.00E+00 Mbytes, locked:    0 /   0

     iteration #  8     ecut=    60.00 Ry     beta= 0.30
     Davidson diagonalization with overlap

---- Real-time Memory Report at c_bands before calling an iterative solver
          5641 MiB given to the printing process from OS
             0 MiB allocation reported by mallinfo(arena+hblkhd)
         15541 MiB available memory on the node where the printing process lives
     GPU memory used/free/total (MiB): 12592 / 3551 / 16144
------------------
     ethr =  5.24E-05,  avg # of iterations =  6.6

     total cpu time spent up to now is      211.2 secs

     total energy              =  -11609.46510226 Ry
     estimated scf accuracy    <       1.70296850 Ry
[tb_dev] Currently allocated     7.32E-04 Mbytes, locked:    0 /   2
[tb_pin] Currently allocated     0.00E+00 Mbytes, locked:    0 /   0

     iteration #  9     ecut=    60.00 Ry     beta= 0.30
     Davidson diagonalization with overlap

---- Real-time Memory Report at c_bands before calling an iterative solver
          5665 MiB given to the printing process from OS
             0 MiB allocation reported by mallinfo(arena+hblkhd)
         15525 MiB available memory on the node where the printing process lives
     GPU memory used/free/total (MiB): 12592 / 3551 / 16144
------------------
     ethr =  5.24E-05,  avg # of iterations =  1.1

     total cpu time spent up to now is      231.4 secs

     total energy              =  -11609.19125904 Ry
     estimated scf accuracy    <       1.01887556 Ry
[tb_dev] Currently allocated     7.32E-04 Mbytes, locked:    0 /   2
[tb_pin] Currently allocated     0.00E+00 Mbytes, locked:    0 /   0

     iteration # 10     ecut=    60.00 Ry     beta= 0.30
     Davidson diagonalization with overlap

---- Real-time Memory Report at c_bands before calling an iterative solver
          5685 MiB given to the printing process from OS
             0 MiB allocation reported by mallinfo(arena+hblkhd)
         15516 MiB available memory on the node where the printing process lives
     GPU memory used/free/total (MiB): 12592 / 3551 / 16144
------------------
     ethr =  5.24E-05,  avg # of iterations =  5.4

     total cpu time spent up to now is      254.9 secs

     total energy              =  -11609.32690324 Ry
     estimated scf accuracy    <       0.23366432 Ry
[tb_dev] Currently allocated     7.32E-04 Mbytes, locked:    0 /   2
[tb_pin] Currently allocated     0.00E+00 Mbytes, locked:    0 /   0

     iteration # 11     ecut=    60.00 Ry     beta= 0.30
     Davidson diagonalization with overlap

---- Real-time Memory Report at c_bands before calling an iterative solver
          5692 MiB given to the printing process from OS
             0 MiB allocation reported by mallinfo(arena+hblkhd)
         15486 MiB available memory on the node where the printing process lives
     GPU memory used/free/total (MiB): 12592 / 3551 / 16144
------------------
     ethr =  3.07E-05,  avg # of iterations =  2.0

     total cpu time spent up to now is      276.2 secs

     total energy              =  -11609.22910323 Ry
     estimated scf accuracy    <       0.33452157 Ry
[tb_dev] Currently allocated     7.32E-04 Mbytes, locked:    0 /   2
[tb_pin] Currently allocated     0.00E+00 Mbytes, locked:    0 /   0

     iteration # 12     ecut=    60.00 Ry     beta= 0.30
     Davidson diagonalization with overlap

---- Real-time Memory Report at c_bands before calling an iterative solver
          5699 MiB given to the printing process from OS
             0 MiB allocation reported by mallinfo(arena+hblkhd)
         15488 MiB available memory on the node where the printing process lives
     GPU memory used/free/total (MiB): 12592 / 3551 / 16144
------------------
     c_bands:  3 eigenvalues not converged
     ethr =  3.07E-05,  avg # of iterations = 16.9

     total cpu time spent up to now is      307.2 secs

     total energy              =  -11609.34898084 Ry
     estimated scf accuracy    <       0.05895726 Ry
[tb_dev] Currently allocated     7.32E-04 Mbytes, locked:    0 /   2
[tb_pin] Currently allocated     0.00E+00 Mbytes, locked:    0 /   0

     iteration # 13     ecut=    60.00 Ry     beta= 0.30
     Davidson diagonalization with overlap

---- Real-time Memory Report at c_bands before calling an iterative solver
          5699 MiB given to the printing process from OS
             0 MiB allocation reported by mallinfo(arena+hblkhd)
         15486 MiB available memory on the node where the printing process lives
     GPU memory used/free/total (MiB): 12592 / 3551 / 16144
------------------
     c_bands:  4 eigenvalues not converged
     c_bands:  2 eigenvalues not converged
     c_bands:  2 eigenvalues not converged
     c_bands:  4 eigenvalues not converged
     ethr =  7.74E-06,  avg # of iterations = 28.1

     total cpu time spent up to now is      341.3 secs

     total energy              =  -11609.36118625 Ry
     estimated scf accuracy    <       0.06772337 Ry
[tb_dev] Currently allocated     7.32E-04 Mbytes, locked:    0 /   2
[tb_pin] Currently allocated     0.00E+00 Mbytes, locked:    0 /   0

     iteration # 14     ecut=    60.00 Ry     beta= 0.30
     Davidson diagonalization with overlap

---- Real-time Memory Report at c_bands before calling an iterative solver
          5699 MiB given to the printing process from OS
             0 MiB allocation reported by mallinfo(arena+hblkhd)
         15491 MiB available memory on the node where the printing process lives
     GPU memory used/free/total (MiB): 12602 / 3541 / 16144
------------------
     ethr =  7.74E-06,  avg # of iterations =  2.0

     total cpu time spent up to now is      362.2 secs

     total energy              =  -11609.34990399 Ry
     estimated scf accuracy    <       0.05562513 Ry
[tb_dev] Currently allocated     7.32E-04 Mbytes, locked:    0 /   2
[tb_pin] Currently allocated     0.00E+00 Mbytes, locked:    0 /   0

     iteration # 15     ecut=    60.00 Ry     beta= 0.30
     Davidson diagonalization with overlap

---- Real-time Memory Report at c_bands before calling an iterative solver
          5699 MiB given to the printing process from OS
             0 MiB allocation reported by mallinfo(arena+hblkhd)
         15495 MiB available memory on the node where the printing process lives
     GPU memory used/free/total (MiB): 12602 / 3541 / 16144
------------------
     ethr =  7.30E-06,  avg # of iterations =  1.4

     total cpu time spent up to now is      382.8 secs

     total energy              =  -11609.34050842 Ry
     estimated scf accuracy    <       0.02839607 Ry
[tb_dev] Currently allocated     7.32E-04 Mbytes, locked:    0 /   2
[tb_pin] Currently allocated     0.00E+00 Mbytes, locked:    0 /   0

     iteration # 16     ecut=    60.00 Ry     beta= 0.30
     Davidson diagonalization with overlap

---- Real-time Memory Report at c_bands before calling an iterative solver
          5699 MiB given to the printing process from OS
             0 MiB allocation reported by mallinfo(arena+hblkhd)
         15496 MiB available memory on the node where the printing process lives
     GPU memory used/free/total (MiB): 12602 / 3541 / 16144
------------------
     ethr =  3.73E-06,  avg # of iterations =  6.1

     total cpu time spent up to now is      405.9 secs

     total energy              =  -11609.34423754 Ry
     estimated scf accuracy    <       0.00359711 Ry
[tb_dev] Currently allocated     7.32E-04 Mbytes, locked:    0 /   2
[tb_pin] Currently allocated     0.00E+00 Mbytes, locked:    0 /   0

     iteration # 17     ecut=    60.00 Ry     beta= 0.30
     Davidson diagonalization with overlap

---- Real-time Memory Report at c_bands before calling an iterative solver
          5699 MiB given to the printing process from OS
             0 MiB allocation reported by mallinfo(arena+hblkhd)
         15496 MiB available memory on the node where the printing process lives
     GPU memory used/free/total (MiB): 12602 / 3541 / 16144
------------------
     c_bands:  1 eigenvalues not converged
     c_bands:  1 eigenvalues not converged
     ethr =  4.72E-07,  avg # of iterations = 14.4

     total cpu time spent up to now is      438.5 secs

     total energy              =  -11609.35064417 Ry
     estimated scf accuracy    <       0.00579160 Ry
[tb_dev] Currently allocated     7.32E-04 Mbytes, locked:    0 /   2
[tb_pin] Currently allocated     0.00E+00 Mbytes, locked:    0 /   0

     iteration # 18     ecut=    60.00 Ry     beta= 0.30
     Davidson diagonalization with overlap

---- Real-time Memory Report at c_bands before calling an iterative solver
          5699 MiB given to the printing process from OS
             0 MiB allocation reported by mallinfo(arena+hblkhd)
         15495 MiB available memory on the node where the printing process lives
     GPU memory used/free/total (MiB): 12602 / 3541 / 16144
------------------
     c_bands:  3 eigenvalues not converged
     ethr =  4.72E-07,  avg # of iterations =  4.3

     total cpu time spent up to now is      460.0 secs

     total energy              =  -11609.34873949 Ry
     estimated scf accuracy    <       0.00693176 Ry
[tb_dev] Currently allocated     7.32E-04 Mbytes, locked:    0 /   2
[tb_pin] Currently allocated     0.00E+00 Mbytes, locked:    0 /   0

     iteration # 19     ecut=    60.00 Ry     beta= 0.30
     Davidson diagonalization with overlap

---- Real-time Memory Report at c_bands before calling an iterative solver
          5699 MiB given to the printing process from OS
             0 MiB allocation reported by mallinfo(arena+hblkhd)
         15490 MiB available memory on the node where the printing process lives
     GPU memory used/free/total (MiB): 12602 / 3541 / 16144
------------------
     ethr =  4.72E-07,  avg # of iterations =  2.1

     total cpu time spent up to now is      481.0 secs

     total energy              =  -11609.34747035 Ry
     estimated scf accuracy    <       0.00263028 Ry
[tb_dev] Currently allocated     7.32E-04 Mbytes, locked:    0 /   2
[tb_pin] Currently allocated     0.00E+00 Mbytes, locked:    0 /   0

     iteration # 20     ecut=    60.00 Ry     beta= 0.30
     Davidson diagonalization with overlap

---- Real-time Memory Report at c_bands before calling an iterative solver
          5699 MiB given to the printing process from OS
             0 MiB allocation reported by mallinfo(arena+hblkhd)
         15475 MiB available memory on the node where the printing process lives
     GPU memory used/free/total (MiB): 12602 / 3541 / 16144
------------------
     ethr =  3.45E-07,  avg # of iterations =  6.3

     total cpu time spent up to now is      506.7 secs

     total energy              =  -11609.34868040 Ry
     estimated scf accuracy    <       0.00051895 Ry
[tb_dev] Currently allocated     7.32E-04 Mbytes, locked:    0 /   2
[tb_pin] Currently allocated     0.00E+00 Mbytes, locked:    0 /   0

     iteration # 21     ecut=    60.00 Ry     beta= 0.30
     Davidson diagonalization with overlap

---- Real-time Memory Report at c_bands before calling an iterative solver
          5699 MiB given to the printing process from OS
             0 MiB allocation reported by mallinfo(arena+hblkhd)
         15466 MiB available memory on the node where the printing process lives
     GPU memory used/free/total (MiB): 12602 / 3541 / 16144
------------------
     ethr =  6.81E-08,  avg # of iterations =  6.5

     total cpu time spent up to now is      531.7 secs

     total energy              =  -11609.34867149 Ry
     estimated scf accuracy    <       0.00071852 Ry
[tb_dev] Currently allocated     7.32E-04 Mbytes, locked:    0 /   2
[tb_pin] Currently allocated     0.00E+00 Mbytes, locked:    0 /   0

     iteration # 22     ecut=    60.00 Ry     beta= 0.30
     Davidson diagonalization with overlap

---- Real-time Memory Report at c_bands before calling an iterative solver
          5699 MiB given to the printing process from OS
             0 MiB allocation reported by mallinfo(arena+hblkhd)
         15438 MiB available memory on the node where the printing process lives
     GPU memory used/free/total (MiB): 12602 / 3541 / 16144
------------------
     ethr =  6.81E-08,  avg # of iterations =  1.6

     total cpu time spent up to now is      552.5 secs

     total energy              =  -11609.34861406 Ry
     estimated scf accuracy    <       0.00022721 Ry
[tb_dev] Currently allocated     7.32E-04 Mbytes, locked:    0 /   2
[tb_pin] Currently allocated     0.00E+00 Mbytes, locked:    0 /   0

     iteration # 23     ecut=    60.00 Ry     beta= 0.30
     Davidson diagonalization with overlap

---- Real-time Memory Report at c_bands before calling an iterative solver
          5699 MiB given to the printing process from OS
             0 MiB allocation reported by mallinfo(arena+hblkhd)
         15440 MiB available memory on the node where the printing process lives
     GPU memory used/free/total (MiB): 12602 / 3541 / 16144
------------------
     ethr =  2.98E-08,  avg # of iterations =  6.3

     total cpu time spent up to now is      577.8 secs

     total energy              =  -11609.34872734 Ry
     estimated scf accuracy    <       0.00003469 Ry
[tb_dev] Currently allocated     7.32E-04 Mbytes, locked:    0 /   2
[tb_pin] Currently allocated     0.00E+00 Mbytes, locked:    0 /   0

     iteration # 24     ecut=    60.00 Ry     beta= 0.30
     Davidson diagonalization with overlap

---- Real-time Memory Report at c_bands before calling an iterative solver
          5699 MiB given to the printing process from OS
             0 MiB allocation reported by mallinfo(arena+hblkhd)
         15444 MiB available memory on the node where the printing process lives
     GPU memory used/free/total (MiB): 12602 / 3541 / 16144
------------------
     ethr =  4.55E-09,  avg # of iterations =  7.0

     total cpu time spent up to now is      601.4 secs

     total energy              =  -11609.34872968 Ry
     estimated scf accuracy    <       0.00003637 Ry
[tb_dev] Currently allocated     7.32E-04 Mbytes, locked:    0 /   2
[tb_pin] Currently allocated     0.00E+00 Mbytes, locked:    0 /   0

     iteration # 25     ecut=    60.00 Ry     beta= 0.30
     Davidson diagonalization with overlap

---- Real-time Memory Report at c_bands before calling an iterative solver
          5699 MiB given to the printing process from OS
             0 MiB allocation reported by mallinfo(arena+hblkhd)
         15437 MiB available memory on the node where the printing process lives
     GPU memory used/free/total (MiB): 12602 / 3541 / 16144
------------------
     ethr =  4.55E-09,  avg # of iterations =  1.8

     total cpu time spent up to now is      622.1 secs

     total energy              =  -11609.34872539 Ry
     estimated scf accuracy    <       0.00001875 Ry
[tb_dev] Currently allocated     7.32E-04 Mbytes, locked:    0 /   2
[tb_pin] Currently allocated     0.00E+00 Mbytes, locked:    0 /   0

     iteration # 26     ecut=    60.00 Ry     beta= 0.30
     Davidson diagonalization with overlap

---- Real-time Memory Report at c_bands before calling an iterative solver
          5699 MiB given to the printing process from OS
             0 MiB allocation reported by mallinfo(arena+hblkhd)
         15441 MiB available memory on the node where the printing process lives
     GPU memory used/free/total (MiB): 12602 / 3541 / 16144
------------------
     ethr =  2.46E-09,  avg # of iterations =  2.0

     total cpu time spent up to now is      644.0 secs

     total energy              =  -11609.34872707 Ry
     estimated scf accuracy    <       0.00000329 Ry
[tb_dev] Currently allocated     7.32E-04 Mbytes, locked:    0 /   2
[tb_pin] Currently allocated     0.00E+00 Mbytes, locked:    0 /   0

     iteration # 27     ecut=    60.00 Ry     beta= 0.30
     Davidson diagonalization with overlap

---- Real-time Memory Report at c_bands before calling an iterative solver
          5699 MiB given to the printing process from OS
             0 MiB allocation reported by mallinfo(arena+hblkhd)
         15435 MiB available memory on the node where the printing process lives
     GPU memory used/free/total (MiB): 12602 / 3541 / 16144
------------------
     ethr =  4.31E-10,  avg # of iterations =  8.4

     total cpu time spent up to now is      671.6 secs

     End of self-consistent calculation

          k = 0.0000 0.0000 0.0000 ( 57243 PWs)   bands (ev):

   -37.1668 -37.1572 -37.1279 -37.1067 -37.0854 -37.0501 -37.0479 -37.0259
   -37.0004 -36.9877 -36.9416 -36.9364 -36.9265 -36.9227 -36.9118 -36.9047
   -36.9016 -36.9000 -36.8983 -36.8928 -36.8826 -36.8729 -36.8717 -36.8480
   -36.8451 -36.7665 -36.5485 -36.4632 -36.4201 -36.4091 -36.3945 -36.3627
   -15.5241 -15.5186 -15.5138 -15.4992 -15.4716 -15.4668 -15.4487 -15.3360
   -15.3258 -15.3219 -15.3124 -15.3087 -15.2983 -15.2955 -15.2923 -15.2893
   -15.2809 -15.2779 -15.2769 -15.2740 -15.2595 -15.2503 -15.2455 -15.2405
   -15.2392 -15.2162 -15.2128 -15.2080 -15.2010 -15.1938 -15.1861 -15.1761
   -15.1720 -15.1571 -15.1502 -15.1463 -15.1242 -15.1210 -15.1117 -15.1083
   -15.1061 -15.1028 -15.0975 -15.0903 -15.0901 -15.0750 -15.0584 -15.0510
   -15.0478 -15.0321 -15.0223 -15.0189 -15.0176 -15.0128 -15.0077 -15.0056
   -15.0036 -14.9916 -14.9846 -14.9804 -14.9717 -14.9674 -14.9655 -14.9594
   -14.9578 -14.9550 -14.9469 -14.9322 -14.9291 -14.9261 -14.9245 -14.9162
   -14.9149 -14.9037 -14.9009 -14.8958 -14.8924 -14.8872 -14.8810 -14.8739
   -14.8716 -14.8676 -14.8654 -14.8592 -14.8543 -14.8503 -14.8418 -14.8396
   -14.8320 -14.8301 -14.8269 -14.8169 -14.8116 -14.7772 -14.7763 -14.7726
    -6.9097  -6.0949  -6.0743  -6.0560  -6.0380  -6.0229  -6.0036  -5.9801
    -5.9575  -5.9157  -5.8816  -5.7510  -5.7204  -5.7055  -5.6878  -5.6777
    -5.6617  -5.6079  -5.5923  -5.5861  -5.5581  -5.5299  -5.5080  -5.4428
    -5.4383  -5.4177  -5.4058  -5.3813  -5.3697  -5.3555  -5.3241  -5.3089
    -5.3038  -5.2675  -5.2554  -5.2429  -5.2287  -5.2210  -5.1840  -5.1553
    -5.1267  -5.0903  -5.0768  -5.0365  -5.0349  -4.9960  -4.9692  -4.9589
    -4.9257  -4.8928  -4.8910  -4.8751  -4.8640  -4.8385  -4.8206  -4.7946
    -4.7743  -4.7605  -4.7430  -4.6918  -4.6614  -4.6201  -4.5818  -4.2235
     5.4769   5.4824   5.4921   6.1317   6.1345   6.1582   6.4208   6.4286
     6.4471   6.4558   6.4782   6.5141   6.5308   6.5376   6.5501   6.5690
     6.5740   6.5854   6.6018   6.6367   6.6724   6.6758   6.6916   6.7042
     6.7225   6.7325   6.7581   6.7985   6.8101   6.8158   6.8325   6.8403
     6.8938   6.9007   6.9138   6.9273   6.9395   6.9724   6.9805   6.9920
     7.0424   7.1594   7.1851   7.2186   7.2542   7.2653   7.2685   7.3448
     7.3608   7.3942   7.6097   7.6143   7.6222   7.6869   7.6895   7.7057
     7.7245   7.7355   7.7517   7.7669   7.7890   7.8012   7.8269   7.9097
     7.9802   8.0247   8.0443   8.0469   8.0569   8.0683   8.0939   8.0969
     8.1018   8.1070   8.1154   8.1366   8.1541   8.1662   8.1684   8.1836
     8.2038   8.2206   8.2366   8.2642   8.3059   8.3267   8.3599   8.4222
     8.4842   8.4970   8.5024   8.5341   8.6231   8.6316   8.6394   8.6885
     8.7059   8.7105   8.7362   8.7476   8.7519   8.7639   8.7700   8.7762
     8.7880   8.7942   8.8229   8.8477   8.8548   8.8573   8.8678   8.8776
     8.9042   8.9220   8.9398   8.9471   8.9678   8.9816   8.9978   9.0023
     9.0128   9.0281   9.0675   9.0749   9.2588   9.2732   9.2873   9.3383
     9.3493   9.3540   9.3731   9.3913   9.4092   9.4698   9.5165   9.5207
     9.5877   9.5964   9.6013   9.6463   9.6500   9.6535   9.6556   9.6594
     9.6712   9.7898   9.8165   9.8281   9.8457   9.8723   9.9248   9.9672
    10.0184  10.1247  10.2057  10.2823  10.3984  10.4461  10.4854  10.5103
    10.5271  10.5519  10.5726  10.5814  10.6198  10.6288  10.6617  10.6873
    10.7126  10.7207  10.7486  10.7637  10.7780  10.8045  10.8186  10.8203
    10.8439  10.8458  10.8763  10.8956  10.9203  10.9664  10.9864  11.0107
    11.0510  11.0653  11.1268  11.1676  11.1944  11.2873  11.4302  11.5107
    14.5828  14.6006  14.8765  14.8882  14.9061  14.9245  14.9331  14.9558
    14.9667  14.9782  14.9823  15.0133  15.0312  15.0390  15.0399  15.0607
    15.0662  15.1360  15.1501  15.1739  15.1916  15.2014  15.2073  15.2246
    15.2395  15.2549  15.2643  15.2969  15.3304  15.3451  15.3934  15.4226
    15.4250  15.4472  15.4553  15.5431  15.5624  15.6030  15.6179  15.6229
    15.6479  15.6525  15.6630  15.7006  15.7094  15.7198  15.7409  15.7706
    15.8045  15.8227  15.8292  15.8405  15.9908  16.0337  16.0777  16.0809
    16.1247  16.1496  16.2031  16.2142  16.2454  16.2693  16.2784  16.3148
    16.8410  16.8452  16.8504  17.0557  17.0790  17.0799  17.0863  17.2378
    17.2591

     occupation numbers 
     1.0000   1.0000   1.0000   1.0000   1.0000   1.0000   1.0000   1.0000
     1.0000   1.0000   1.0000   1.0000   1.0000   1.0000   1.0000   1.0000
     1.0000   1.0000   1.0000   1.0000   1.0000   1.0000   1.0000   1.0000
     1.0000   1.0000   1.0000   1.0000   1.0000   1.0000   1.0000   1.0000
     1.0000   1.0000   1.0000   1.0000   1.0000   1.0000   1.0000   1.0000
     1.0000   1.0000   1.0000   1.0000   1.0000   1.0000   1.0000   1.0000
     1.0000   1.0000   1.0000   1.0000   1.0000   1.0000   1.0000   1.0000
     1.0000   1.0000   1.0000   1.0000   1.0000   1.0000   1.0000   1.0000
     1.0000   1.0000   1.0000   1.0000   1.0000   1.0000   1.0000   1.0000
     1.0000   1.0000   1.0000   1.0000   1.0000   1.0000   1.0000   1.0000
     1.0000   1.0000   1.0000   1.0000   1.0000   1.0000   1.0000   1.0000
     1.0000   1.0000   1.0000   1.0000   1.0000   1.0000   1.0000   1.0000
     1.0000   1.0000   1.0000   1.0000   1.0000   1.0000   1.0000   1.0000
     1.0000   1.0000   1.0000   1.0000   1.0000   1.0000   1.0000   1.0000
     1.0000   1.0000   1.0000   1.0000   1.0000   1.0000   1.0000   1.0000
     1.0000   1.0000   1.0000   1.0000   1.0000   1.0000   1.0000   1.0000
     1.0000   1.0000   1.0000   1.0000   1.0000   1.0000   1.0000   1.0000
     1.0000   1.0000   1.0000   1.0000   1.0000   1.0000   1.0000   1.0000
     1.0000   1.0000   1.0000   1.0000   1.0000   1.0000   1.0000   1.0000
     1.0000   1.0000   1.0000   1.0000   1.0000   1.0000   1.0000   1.0000
     1.0000   1.0000   1.0000   1.0000   1.0000   1.0000   1.0000   1.0000
     1.0000   1.0000   1.0000   1.0000   1.0000   1.0000   1.0000   1.0000
     1.0000   1.0000   1.0000   1.0000   1.0000   1.0000   1.0000   1.0000
     1.0000   1.0000   1.0000   1.0000   1.0000   1.0000   1.0000   1.0000
     1.0000   1.0000   1.0000   1.0000   1.0000   1.0000   1.0000   1.0000
     1.0000   1.0000   1.0000   1.0000   1.0000   1.0000   1.0000   1.0000
     1.0000   1.0000   1.0000   1.0000   1.0000   1.0000   1.0000   1.0000
     1.0000   1.0000   1.0000   1.0000   1.0000   1.0000   1.0000   1.0000
     1.0000   1.0000   1.0000   1.0000   1.0000   1.0000   1.0000   1.0000
     1.0000   1.0000   1.0000   1.0000   1.0000   1.0000   1.0000   1.0000
     1.0000   1.0000   1.0000   1.0000   1.0000   1.0000   1.0000   1.0000
     1.0000   1.0000   1.0000   1.0000   1.0000   1.0000   1.0000   1.0000
     1.0000   1.0000   1.0000   1.0000   1.0000   1.0000   1.0000   1.0000
     1.0000   1.0000   1.0000   1.0000   1.0000   1.0000   1.0000   1.0000
     1.0000   1.0000   1.0000   1.0000   1.0000   1.0000   1.0000   1.0000
     1.0000   1.0000   1.0000   1.0000   1.0000   1.0000   1.0000   1.0000
     1.0000   1.0000   1.0000   1.0000   1.0000   1.0000   1.0000   1.0000
     1.0000   1.0000   1.0000   1.0000   1.0000   1.0000   1.0000   1.0000
     1.0000   1.0000   1.0000   1.0000   1.0000   1.0000   1.0000   1.0000
     1.0000   1.0000   1.0000   1.0000   1.0000   1.0000   1.0000   1.0000
     1.0000   1.0000   1.0000   1.0000   1.0000   1.0000   1.0000   1.0000
     1.0000   1.0000   1.0000   1.0000   1.0000   1.0000   1.0000   1.0000
     1.0000   1.0000   1.0000   1.0000   1.0000   1.0000   1.0000   1.0000
     1.0000   1.0000   1.0000   1.0000   1.0000   1.0000   1.0000   1.0000
     1.0000   1.0000   1.0000   1.0000   1.0000   1.0000   1.0000   1.0000
     1.0000   1.0000   1.0000   1.0000   1.0000   1.0000   1.0000   1.0000
     1.0000   1.0000   1.0000   0.9998   0.9989   0.9826   0.9550   0.8829
     0.6375   0.5223   0.1104   0.0192   0.0043   0.0000   0.0000   0.0000
     0.0000   0.0000   0.0000   0.0000   0.0000   0.0000   0.0000   0.0000
     0.0000   0.0000   0.0000   0.0000   0.0000   0.0000   0.0000   0.0000
     0.0000   0.0000   0.0000   0.0000   0.0000   0.0000   0.0000   0.0000
     0.0000   0.0000   0.0000   0.0000   0.0000   0.0000   0.0000   0.0000
     0.0000   0.0000   0.0000   0.0000   0.0000   0.0000   0.0000   0.0000
     0.0000   0.0000   0.0000   0.0000   0.0000   0.0000   0.0000   0.0000
     0.0000   0.0000   0.0000   0.0000   0.0000   0.0000   0.0000   0.0000
     0.0000   0.0000   0.0000   0.0000   0.0000   0.0000   0.0000   0.0000
     0.0000   0.0000   0.0000   0.0000   0.0000   0.0000   0.0000   0.0000
     0.0000

          k = 0.0000 0.0000-0.5000 ( 56960 PWs)   bands (ev):

   -37.1668 -37.1572 -37.1279 -37.1067 -37.0855 -37.0501 -37.0478 -37.0258
   -37.0004 -36.9877 -36.9416 -36.9364 -36.9265 -36.9227 -36.9119 -36.9047
   -36.9016 -36.9000 -36.8984 -36.8928 -36.8825 -36.8731 -36.8715 -36.8481
   -36.8451 -36.7665 -36.5485 -36.4632 -36.4201 -36.4090 -36.3945 -36.3627
   -15.5021 -15.4924 -15.4862 -15.4779 -15.4517 -15.4463 -15.4170 -15.3973
   -15.3899 -15.3832 -15.3535 -15.3487 -15.3350 -15.3269 -15.3115 -15.3061
   -15.2967 -15.2710 -15.2694 -15.2664 -15.2509 -15.2419 -15.2339 -15.2297
   -15.2239 -15.2148 -15.2084 -15.2037 -15.2001 -15.1893 -15.1862 -15.1761
   -15.1700 -15.1684 -15.1659 -15.1569 -15.1428 -15.1225 -15.1207 -15.1163
   -15.0866 -15.0822 -15.0773 -15.0655 -15.0539 -15.0498 -15.0388 -15.0311
   -15.0268 -15.0239 -15.0102 -15.0086 -15.0051 -15.0028 -14.9960 -14.9904
   -14.9855 -14.9756 -14.9722 -14.9660 -14.9630 -14.9583 -14.9524 -14.9507
   -14.9464 -14.9460 -14.9396 -14.9389 -14.9350 -14.9307 -14.9246 -14.9212
   -14.9204 -14.9185 -14.9173 -14.9032 -14.8963 -14.8923 -14.8873 -14.8831
   -14.8802 -14.8779 -14.8750 -14.8681 -14.8618 -14.8560 -14.8465 -14.8457
   -14.8414 -14.8376 -14.8331 -14.8292 -14.8199 -14.7839 -14.7834 -14.7773
    -6.7207  -6.5644  -6.0593  -6.0201  -6.0120  -5.9881  -5.9602  -5.9189
    -5.9093  -5.8869  -5.8765  -5.8085  -5.7832  -5.7212  -5.7176  -5.6784
    -5.6523  -5.6470  -5.6148  -5.5860  -5.5416  -5.4895  -5.4714  -5.4609
    -5.4187  -5.3986  -5.3925  -5.3798  -5.3555  -5.3349  -5.3259  -5.3106
    -5.2672  -5.2604  -5.2495  -5.2090  -5.1955  -5.1698  -5.1487  -5.1281
    -5.1165  -5.0823  -5.0760  -5.0605  -5.0416  -4.9987  -4.9717  -4.9623
    -4.9473  -4.9068  -4.8942  -4.8868  -4.8750  -4.8629  -4.8501  -4.8079
    -4.7888  -4.7678  -4.7449  -4.7088  -4.6799  -4.6417  -4.4444  -4.3244
     5.6919   5.7063   5.8859   5.9254   5.9561   6.1463   6.1983   6.2324
     6.3816   6.4137   6.4841   6.4944   6.5081   6.5509   6.5761   6.5875
     6.5949   6.6072   6.6732   6.6771   6.6904   6.7251   6.7449   6.7548
     6.7635   6.7741   6.7866   6.8082   6.8267   6.8508   6.8706   6.8857
     6.9156   6.9271   6.9335   6.9846   7.0014   7.0196   7.0759   7.1004
     7.1361   7.1405   7.1914   7.2231   7.2460   7.2558   7.2921   7.3110
     7.3318   7.3535   7.3825   7.4263   7.4332   7.4864   7.5012   7.5194
     7.5490   7.5711   7.6101   7.6198   7.6322   7.6594   7.6794   7.7022
     7.7155   7.7569   7.7796   7.8499   7.8702   7.8928   7.9220   7.9897
     7.9934   8.0429   8.0843   8.0992   8.2274   8.2646   8.2732   8.3186
     8.3327   8.3530   8.3686   8.3820   8.4166   8.4219   8.4359   8.4616
     8.4930   8.5117   8.5120   8.5307   8.5353   8.5497   8.5634   8.5760
     8.5930   8.6196   8.6520   8.6632   8.7176   8.7343   8.7646   8.7817
     8.7945   8.7992   8.8427   8.8747   8.9029   8.9481   8.9756   8.9876
     9.0050   9.0560   9.0726   9.1144   9.1250   9.1295   9.1842   9.2089
     9.2298   9.2360   9.2460   9.2652   9.2782   9.3006   9.3143   9.3593
     9.4391   9.4646   9.5008   9.5925   9.6266   9.6674   9.7650   9.7820
     9.8074   9.8398   9.8511   9.8758   9.8834   9.9318   9.9365  10.0070
    10.0253  10.0352  10.0434  10.0607  10.0746  10.1076  10.1247  10.1327
    10.1554  10.1660  10.2252  10.2471  10.2568  10.2595  10.2685  10.2865
    10.3507  10.3760  10.3869  10.4013  10.4280  10.4476  10.4622  10.4885
    10.5177  10.5415  10.5480  10.6045  10.6198  10.6296  10.6699  10.7020
    10.7101  10.7188  10.7327  10.7573  10.7775  10.8284  10.8350  10.8513
    10.8663  10.8810  10.9396  10.9846  11.1470  11.2371  11.2575  11.3996
    14.6668  14.8416  14.8915  14.9325  14.9753  14.9910  15.0276  15.0394
    15.0454  15.0665  15.0793  15.0946  15.1149  15.1208  15.1351  15.1378
    15.1465  15.1593  15.1728  15.1948  15.2208  15.2332  15.2477  15.2521
    15.2615  15.2694  15.2813  15.3117  15.3340  15.3679  15.3873  15.3996
    15.4166  15.4252  15.4549  15.5017  15.5089  15.5203  15.5235  15.5413
    15.5612  15.5823  15.6106  15.6348  15.6364  15.6585  15.6770  15.6965
    15.7423  15.7580  15.7634  15.7920  16.0072  16.0134  16.0360  16.0569
    16.0885  16.1105  16.1796  16.1862  16.2010  16.2160  16.2604  16.2928
    16.9111  16.9165  16.9844  16.9872  17.1294  17.1559  17.1647  17.1743
    17.2097

     occupation numbers 
     1.0000   1.0000   1.0000   1.0000   1.0000   1.0000   1.0000   1.0000
     1.0000   1.0000   1.0000   1.0000   1.0000   1.0000   1.0000   1.0000
     1.0000   1.0000   1.0000   1.0000   1.0000   1.0000   1.0000   1.0000
     1.0000   1.0000   1.0000   1.0000   1.0000   1.0000   1.0000   1.0000
     1.0000   1.0000   1.0000   1.0000   1.0000   1.0000   1.0000   1.0000
     1.0000   1.0000   1.0000   1.0000   1.0000   1.0000   1.0000   1.0000
     1.0000   1.0000   1.0000   1.0000   1.0000   1.0000   1.0000   1.0000
     1.0000   1.0000   1.0000   1.0000   1.0000   1.0000   1.0000   1.0000
     1.0000   1.0000   1.0000   1.0000   1.0000   1.0000   1.0000   1.0000
     1.0000   1.0000   1.0000   1.0000   1.0000   1.0000   1.0000   1.0000
     1.0000   1.0000   1.0000   1.0000   1.0000   1.0000   1.0000   1.0000
     1.0000   1.0000   1.0000   1.0000   1.0000   1.0000   1.0000   1.0000
     1.0000   1.0000   1.0000   1.0000   1.0000   1.0000   1.0000   1.0000
     1.0000   1.0000   1.0000   1.0000   1.0000   1.0000   1.0000   1.0000
     1.0000   1.0000   1.0000   1.0000   1.0000   1.0000   1.0000   1.0000
     1.0000   1.0000   1.0000   1.0000   1.0000   1.0000   1.0000   1.0000
     1.0000   1.0000   1.0000   1.0000   1.0000   1.0000   1.0000   1.0000
     1.0000   1.0000   1.0000   1.0000   1.0000   1.0000   1.0000   1.0000
     1.0000   1.0000   1.0000   1.0000   1.0000   1.0000   1.0000   1.0000
     1.0000   1.0000   1.0000   1.0000   1.0000   1.0000   1.0000   1.0000
     1.0000   1.0000   1.0000   1.0000   1.0000   1.0000   1.0000   1.0000
     1.0000   1.0000   1.0000   1.0000   1.0000   1.0000   1.0000   1.0000
     1.0000   1.0000   1.0000   1.0000   1.0000   1.0000   1.0000   1.0000
     1.0000   1.0000   1.0000   1.0000   1.0000   1.0000   1.0000   1.0000
     1.0000   1.0000   1.0000   1.0000   1.0000   1.0000   1.0000   1.0000
     1.0000   1.0000   1.0000   1.0000   1.0000   1.0000   1.0000   1.0000
     1.0000   1.0000   1.0000   1.0000   1.0000   1.0000   1.0000   1.0000
     1.0000   1.0000   1.0000   1.0000   1.0000   1.0000   1.0000   1.0000
     1.0000   1.0000   1.0000   1.0000   1.0000   1.0000   1.0000   1.0000
     1.0000   1.0000   1.0000   1.0000   1.0000   1.0000   1.0000   1.0000
     1.0000   1.0000   1.0000   1.0000   1.0000   1.0000   1.0000   1.0000
     1.0000   1.0000   1.0000   1.0000   1.0000   1.0000   1.0000   1.0000
     1.0000   1.0000   1.0000   1.0000   1.0000   1.0000   1.0000   1.0000
     1.0000   1.0000   1.0000   1.0000   1.0000   1.0000   1.0000   1.0000
     1.0000   1.0000   1.0000   1.0000   1.0000   1.0000   1.0000   1.0000
     1.0000   1.0000   1.0000   1.0000   1.0000   1.0000   1.0000   1.0000
     1.0000   1.0000   1.0000   1.0000   1.0000   1.0000   1.0000   1.0000
     1.0000   1.0000   1.0000   1.0000   1.0000   1.0000   1.0000   1.0000
     1.0000   1.0000   1.0000   1.0000   1.0000   1.0000   1.0000   1.0000
     1.0000   1.0000   1.0000   1.0000   1.0000   1.0000   1.0000   1.0000
     1.0000   1.0000   1.0000   1.0000   1.0000   1.0000   1.0000   1.0000
     1.0000   1.0000   1.0000   1.0000   1.0000   1.0000   1.0000   1.0000
     1.0000   1.0000   1.0000   1.0000   1.0000   1.0000   1.0000   1.0000
     1.0000   1.0000   1.0000   1.0000   1.0000   1.0000   1.0000   1.0000
     1.0000   1.0000   1.0000   1.0000   1.0000   1.0000   1.0000   1.0000
     1.0000   1.0000   1.0000   1.0000   1.0000   1.0000   1.0000   1.0000
     1.0000   1.0000   1.0000   1.0000   1.0000   1.0000   1.0000   1.0000
     1.0000   0.9999   0.9962   0.9584   0.0501   0.0002   0.0000   0.0000
     0.0000   0.0000   0.0000   0.0000   0.0000   0.0000   0.0000   0.0000
     0.0000   0.0000   0.0000   0.0000   0.0000   0.0000   0.0000   0.0000
     0.0000   0.0000   0.0000   0.0000   0.0000   0.0000   0.0000   0.0000
     0.0000   0.0000   0.0000   0.0000   0.0000   0.0000   0.0000   0.0000
     0.0000   0.0000   0.0000   0.0000   0.0000   0.0000   0.0000   0.0000
     0.0000   0.0000   0.0000   0.0000   0.0000   0.0000   0.0000   0.0000
     0.0000   0.0000   0.0000   0.0000   0.0000   0.0000   0.0000   0.0000
     0.0000   0.0000   0.0000   0.0000   0.0000   0.0000   0.0000   0.0000
     0.0000   0.0000   0.0000   0.0000   0.0000   0.0000   0.0000   0.0000
     0.0000

          k = 0.0000-0.5000-0.5000 ( 56972 PWs)   bands (ev):

   -37.1668 -37.1572 -37.1279 -37.1067 -37.0855 -37.0501 -37.0478 -37.0259
   -37.0004 -36.9877 -36.9415 -36.9365 -36.9265 -36.9226 -36.9122 -36.9052
   -36.9007 -36.8993 -36.8989 -36.8930 -36.8825 -36.8731 -36.8715 -36.8481
   -36.8451 -36.7665 -36.5485 -36.4632 -36.4201 -36.4090 -36.3945 -36.3627
   -15.4868 -15.4790 -15.4763 -15.4693 -15.4440 -15.4399 -15.4231 -15.3884
   -15.3817 -15.3736 -15.3677 -15.3618 -15.3478 -15.3335 -15.3307 -15.3183
   -15.3064 -15.3008 -15.2860 -15.2853 -15.2832 -15.2755 -15.2719 -15.2609
   -15.2482 -15.2262 -15.2124 -15.2088 -15.1680 -15.1634 -15.1578 -15.1465
   -15.1417 -15.1274 -15.1158 -15.1100 -15.1083 -15.1048 -15.0985 -15.0931
   -15.0857 -15.0835 -15.0712 -15.0663 -15.0597 -15.0546 -15.0503 -15.0459
   -15.0390 -15.0374 -15.0305 -15.0107 -15.0038 -14.9952 -14.9920 -14.9849
   -14.9822 -14.9786 -14.9768 -14.9752 -14.9701 -14.9622 -14.9593 -14.9542
   -14.9531 -14.9457 -14.9435 -14.9418 -14.9407 -14.9318 -14.9270 -14.9225
   -14.9189 -14.9148 -14.9105 -14.9070 -14.9021 -14.8975 -14.8887 -14.8849
   -14.8808 -14.8791 -14.8771 -14.8732 -14.8680 -14.8534 -14.8483 -14.8449
   -14.8408 -14.8401 -14.8354 -14.8220 -14.8164 -14.7857 -14.7793 -14.7763
    -6.5868  -6.4331  -6.4039  -6.2776  -6.0625  -6.0016  -5.9390  -5.9196
    -5.9040  -5.8933  -5.8355  -5.7365  -5.6998  -5.6850  -5.6556  -5.6370
    -5.6079  -5.5947  -5.5670  -5.5484  -5.5408  -5.5213  -5.5063  -5.4738
    -5.4489  -5.4105  -5.3667  -5.3623  -5.3417  -5.3351  -5.3045  -5.2869
    -5.2479  -5.2399  -5.2312  -5.2230  -5.1894  -5.1714  -5.1620  -5.1362
    -5.1273  -5.0933  -5.0740  -5.0483  -5.0340  -5.0112  -5.0013  -4.9792
    -4.9595  -4.9471  -4.9226  -4.8972  -4.8839  -4.8738  -4.8573  -4.8138
    -4.7917  -4.7440  -4.7236  -4.6949  -4.6888  -4.5735  -4.4813  -4.3686
     5.8334   6.0367   6.0919   6.1010   6.1200   6.2021   6.2721   6.2940
     6.3057   6.3106   6.3435   6.4371   6.4616   6.4771   6.5051   6.5185
     6.5291   6.5430   6.5662   6.5851   6.5885   6.6657   6.6847   6.7357
     6.7546   6.7679   6.7977   6.8385   6.8794   6.8975   6.9281   6.9302
     6.9612   6.9807   6.9900   7.0385   7.0640   7.0732   7.0920   7.0981
     7.1172   7.1729   7.2063   7.2186   7.2317   7.2425   7.2751   7.2874
     7.3543   7.3690   7.3781   7.3852   7.3975   7.4114   7.4227   7.4296
     7.4533   7.5055   7.5139   7.5250   7.5416   7.5990   7.6146   7.6236
     7.7053   7.7094   7.7179   7.7691   7.7908   7.8507   7.8648   7.9069
     7.9315   7.9648   8.0016   8.0134   8.0715   8.0903   8.0960   8.1076
     8.1465   8.1484   8.1602   8.1884   8.2197   8.2368   8.2500   8.2719
     8.2767   8.2883   8.3040   8.3356   8.3719   8.3943   8.4254   8.4323
     8.4901   8.5111   8.5951   8.7331   8.7531   8.7922   8.8807   8.9212
     9.1292   9.1337   9.1815   9.2045   9.2365   9.2482   9.2631   9.2762
     9.2859   9.2900   9.2973   9.3128   9.4910   9.5213   9.5282   9.5607
     9.5711   9.6446   9.6805   9.6991   9.7188   9.7415   9.7625   9.7908
     9.8100   9.8142   9.8457   9.8584   9.8663   9.8889   9.8890   9.9055
     9.9149   9.9253   9.9285   9.9450   9.9525   9.9616   9.9847   9.9929
    10.0122  10.0267  10.0297  10.0555  10.0700  10.0814  10.0872  10.0941
    10.0992  10.1174  10.1255  10.1266  10.1505  10.1806  10.1885  10.2012
    10.2249  10.2404  10.2453  10.2625  10.2674  10.2775  10.2864  10.3099
    10.3193  10.3318  10.3471  10.3694  10.4003  10.4045  10.4160  10.4447
    10.4813  10.4960  10.5236  10.5293  10.5476  10.5959  10.6093  10.6633
    10.7077  10.8288  10.8400  10.8851  10.9880  11.0171  11.1022  11.2178
    14.7719  14.9207  14.9608  15.0076  15.0315  15.0613  15.0835  15.1040
    15.1126  15.1214  15.1335  15.1703  15.1766  15.2083  15.2155  15.2220
    15.2284  15.2362  15.2449  15.2515  15.2633  15.2743  15.2883  15.3006
    15.3046  15.3144  15.3183  15.3323  15.3486  15.3601  15.3736  15.3843
    15.4181  15.4265  15.4472  15.4519  15.4759  15.4858  15.5031  15.5139
    15.5185  15.5322  15.5410  15.5442  15.5570  15.5647  15.5693  15.5945
    15.6172  15.6785  15.7057  15.8000  15.9790  15.9997  16.0181  16.0460
    16.0699  16.0866  16.1326  16.1400  16.1840  16.1942  16.2201  16.2961
    17.1025  17.1103  17.1186  17.1270  17.1311  17.1410  17.1538  17.1799
    17.1973

     occupation numbers 
     1.0000   1.0000   1.0000   1.0000   1.0000   1.0000   1.0000   1.0000
     1.0000   1.0000   1.0000   1.0000   1.0000   1.0000   1.0000   1.0000
     1.0000   1.0000   1.0000   1.0000   1.0000   1.0000   1.0000   1.0000
     1.0000   1.0000   1.0000   1.0000   1.0000   1.0000   1.0000   1.0000
     1.0000   1.0000   1.0000   1.0000   1.0000   1.0000   1.0000   1.0000
     1.0000   1.0000   1.0000   1.0000   1.0000   1.0000   1.0000   1.0000
     1.0000   1.0000   1.0000   1.0000   1.0000   1.0000   1.0000   1.0000
     1.0000   1.0000   1.0000   1.0000   1.0000   1.0000   1.0000   1.0000
     1.0000   1.0000   1.0000   1.0000   1.0000   1.0000   1.0000   1.0000
     1.0000   1.0000   1.0000   1.0000   1.0000   1.0000   1.0000   1.0000
     1.0000   1.0000   1.0000   1.0000   1.0000   1.0000   1.0000   1.0000
     1.0000   1.0000   1.0000   1.0000   1.0000   1.0000   1.0000   1.0000
     1.0000   1.0000   1.0000   1.0000   1.0000   1.0000   1.0000   1.0000
     1.0000   1.0000   1.0000   1.0000   1.0000   1.0000   1.0000   1.0000
     1.0000   1.0000   1.0000   1.0000   1.0000   1.0000   1.0000   1.0000
     1.0000   1.0000   1.0000   1.0000   1.0000   1.0000   1.0000   1.0000
     1.0000   1.0000   1.0000   1.0000   1.0000   1.0000   1.0000   1.0000
     1.0000   1.0000   1.0000   1.0000   1.0000   1.0000   1.0000   1.0000
     1.0000   1.0000   1.0000   1.0000   1.0000   1.0000   1.0000   1.0000
     1.0000   1.0000   1.0000   1.0000   1.0000   1.0000   1.0000   1.0000
     1.0000   1.0000   1.0000   1.0000   1.0000   1.0000   1.0000   1.0000
     1.0000   1.0000   1.0000   1.0000   1.0000   1.0000   1.0000   1.0000
     1.0000   1.0000   1.0000   1.0000   1.0000   1.0000   1.0000   1.0000
     1.0000   1.0000   1.0000   1.0000   1.0000   1.0000   1.0000   1.0000
     1.0000   1.0000   1.0000   1.0000   1.0000   1.0000   1.0000   1.0000
     1.0000   1.0000   1.0000   1.0000   1.0000   1.0000   1.0000   1.0000
     1.0000   1.0000   1.0000   1.0000   1.0000   1.0000   1.0000   1.0000
     1.0000   1.0000   1.0000   1.0000   1.0000   1.0000   1.0000   1.0000
     1.0000   1.0000   1.0000   1.0000   1.0000   1.0000   1.0000   1.0000
     1.0000   1.0000   1.0000   1.0000   1.0000   1.0000   1.0000   1.0000
     1.0000   1.0000   1.0000   1.0000   1.0000   1.0000   1.0000   1.0000
     1.0000   1.0000   1.0000   1.0000   1.0000   1.0000   1.0000   1.0000
     1.0000   1.0000   1.0000   1.0000   1.0000   1.0000   1.0000   1.0000
     1.0000   1.0000   1.0000   1.0000   1.0000   1.0000   1.0000   1.0000
     1.0000   1.0000   1.0000   1.0000   1.0000   1.0000   1.0000   1.0000
     1.0000   1.0000   1.0000   1.0000   1.0000   1.0000   1.0000   1.0000
     1.0000   1.0000   1.0000   1.0000   1.0000   1.0000   1.0000   1.0000
     1.0000   1.0000   1.0000   1.0000   1.0000   1.0000   1.0000   1.0000
     1.0000   1.0000   1.0000   1.0000   1.0000   1.0000   1.0000   1.0000
     1.0000   1.0000   1.0000   1.0000   1.0000   1.0000   1.0000   1.0000
     1.0000   1.0000   1.0000   1.0000   1.0000   1.0000   1.0000   1.0000
     1.0000   1.0000   1.0000   1.0000   1.0000   1.0000   1.0000   1.0000
     1.0000   1.0000   1.0000   1.0000   1.0000   1.0000   1.0000   1.0000
     1.0000   1.0000   1.0000   1.0000   1.0000   1.0000   1.0000   1.0000
     1.0000   1.0000   1.0000   1.0000   1.0000   1.0000   1.0000   1.0000
     1.0000   1.0000   1.0000   1.0000   1.0000   1.0000   1.0000   1.0000
     1.0000   1.0000   1.0000   1.0000   1.0000   1.0000   1.0000   1.0000
     1.0000   1.0000   1.0000   0.9999   0.9518   0.8545   0.2383   0.0009
     0.0000   0.0000   0.0000   0.0000   0.0000   0.0000   0.0000   0.0000
     0.0000   0.0000   0.0000   0.0000   0.0000   0.0000   0.0000   0.0000
     0.0000   0.0000   0.0000   0.0000   0.0000   0.0000   0.0000   0.0000
     0.0000   0.0000   0.0000   0.0000   0.0000   0.0000   0.0000   0.0000
     0.0000   0.0000   0.0000   0.0000   0.0000   0.0000   0.0000   0.0000
     0.0000   0.0000   0.0000   0.0000   0.0000   0.0000   0.0000   0.0000
     0.0000   0.0000   0.0000   0.0000   0.0000   0.0000   0.0000   0.0000
     0.0000   0.0000   0.0000   0.0000   0.0000   0.0000   0.0000   0.0000
     0.0000   0.0000   0.0000   0.0000   0.0000   0.0000   0.0000   0.0000
     0.0000

          k =-0.5000-0.5000-0.5000 ( 57016 PWs)   bands (ev):

   -37.1666 -37.1574 -37.1279 -37.1067 -37.0855 -37.0501 -37.0479 -37.0259
   -37.0004 -36.9877 -36.9415 -36.9364 -36.9264 -36.9227 -36.9122 -36.9054
   -36.9007 -36.8992 -36.8990 -36.8930 -36.8824 -36.8730 -36.8716 -36.8481
   -36.8451 -36.7665 -36.5485 -36.4632 -36.4201 -36.4090 -36.3945 -36.3627
   -15.4931 -15.4824 -15.4752 -15.4702 -15.4539 -15.4483 -15.4238 -15.3876
   -15.3821 -15.3744 -15.3676 -15.3564 -15.3479 -15.3409 -15.3328 -15.3287
   -15.3135 -15.3075 -15.3023 -15.2946 -15.2823 -15.2711 -15.2489 -15.2469
   -15.2043 -15.1890 -15.1830 -15.1662 -15.1548 -15.1521 -15.1499 -15.1423
   -15.1292 -15.1267 -15.1241 -15.1165 -15.1149 -15.1085 -15.1016 -15.0979
   -15.0928 -15.0868 -15.0836 -15.0784 -15.0652 -15.0635 -15.0398 -15.0356
   -15.0306 -15.0283 -15.0246 -15.0213 -15.0113 -15.0098 -15.0066 -15.0015
   -14.9995 -14.9955 -14.9947 -14.9911 -14.9860 -14.9780 -14.9745 -14.9734
   -14.9663 -14.9599 -14.9584 -14.9477 -14.9427 -14.9406 -14.9326 -14.9285
   -14.9219 -14.9190 -14.9123 -14.9116 -14.8995 -14.8953 -14.8875 -14.8809
   -14.8748 -14.8610 -14.8580 -14.8522 -14.8446 -14.8437 -14.8409 -14.8371
   -14.8348 -14.8304 -14.8283 -14.8225 -14.8129 -14.7799 -14.7774 -14.7742
    -6.4491  -6.4057  -6.3562  -6.3345  -6.2736  -6.1619  -6.1029  -6.0136
    -5.7257  -5.7118  -5.6996  -5.6919  -5.6892  -5.6760  -5.6475  -5.6310
    -5.6159  -5.5898  -5.5807  -5.5736  -5.5566  -5.5265  -5.4783  -5.4723
    -5.4614  -5.4439  -5.3908  -5.3569  -5.3326  -5.3286  -5.2944  -5.2799
    -5.2659  -5.2401  -5.2148  -5.1843  -5.1673  -5.1479  -5.1406  -5.1122
    -5.1078  -5.0927  -5.0881  -5.0431  -5.0317  -5.0291  -5.0037  -4.9928
    -4.9807  -4.9677  -4.9517  -4.9167  -4.9130  -4.8846  -4.8619  -4.8396
    -4.8105  -4.7464  -4.7090  -4.6739  -4.6602  -4.5579  -4.5028  -4.3919
     6.2143   6.2588   6.2668   6.2800   6.3191   6.3460   6.3534   6.3632
     6.3832   6.3885   6.4175   6.4221   6.4352   6.4446   6.4731   6.4901
     6.5075   6.5186   6.5212   6.5447   6.5484   6.5830   6.6047   6.6202
     6.6409   6.6632   6.6772   6.6921   6.7288   6.7473   6.8085   6.8511
     6.8636   6.8776   6.9024   6.9201   6.9255   7.0297   7.0362   7.0838
     7.3595   7.3789   7.3825   7.3962   7.4059   7.4212   7.4240   7.4373
     7.4471   7.4589   7.4621   7.4717   7.4857   7.4895   7.5077   7.5166
     7.5381   7.5510   7.5555   7.5572   7.5797   7.5870   7.5967   7.6059
     7.6074   7.6315   7.6347   7.6686   7.6747   7.6806   7.6997   7.7076
     7.7170   7.7303   7.7433   7.7652   7.7742   7.7799   7.8041   7.8119
     7.8388   7.8461   7.8984   7.9245   7.9617   7.9769   7.9937   8.0005
     8.0094   8.0252   8.0380   8.0510   8.0570   8.1235   8.1348   8.1535
     9.4454   9.4713   9.4873   9.5009   9.5075   9.5112   9.5273   9.5407
     9.5522   9.5622   9.5693   9.5751   9.5864   9.6006   9.6061   9.6255
     9.6358   9.6389   9.6458   9.6501   9.6718   9.6846   9.6957   9.6985
     9.7079   9.7192   9.7333   9.7569   9.7732   9.7852   9.7964   9.8052
     9.8213   9.8362   9.8429   9.8539   9.8635   9.8796   9.8813   9.8873
     9.9079   9.9116   9.9259   9.9431   9.9513   9.9626   9.9853   9.9955
     9.9960  10.0083  10.0190  10.0228  10.0307  10.0394  10.0587  10.0637
    10.0738  10.0827  10.0975  10.1058  10.1083  10.1112  10.1210  10.1396
    10.1480  10.1578  10.1668  10.1764  10.1837  10.1851  10.1987  10.2051
    10.2074  10.2275  10.2322  10.2468  10.2705  10.2753  10.2851  10.3073
    10.3178  10.3422  10.3750  10.3855  10.4042  10.4101  10.4252  10.4595
    10.4805  10.4901  10.5113  10.5204  10.5445  10.6291  10.6395  10.6858
    15.0268  15.0285  15.0545  15.0635  15.0873  15.1119  15.1223  15.1400
    15.1513  15.1740  15.1841  15.1955  15.2105  15.2184  15.2245  15.2398
    15.2452  15.2634  15.2707  15.2790  15.2883  15.2970  15.3007  15.3164
    15.3256  15.3359  15.3536  15.3710  15.3745  15.3844  15.3900  15.3964
    15.3998  15.4080  15.4395  15.4483  15.4892  15.4960  15.4982  15.5025
    15.5169  15.5229  15.5312  15.5361  15.5450  15.5474  15.5548  15.5567
    15.5735  15.5794  15.5965  15.6287  15.9741  15.9974  16.0079  16.0452
    16.0654  16.0864  16.1096  16.1338  16.1549  16.1766  16.1944  16.2208
    17.2099  17.2318  17.2425  17.2452  17.2573  17.2624  17.2629  17.2718
    17.2833

     occupation numbers 
     1.0000   1.0000   1.0000   1.0000   1.0000   1.0000   1.0000   1.0000
     1.0000   1.0000   1.0000   1.0000   1.0000   1.0000   1.0000   1.0000
     1.0000   1.0000   1.0000   1.0000   1.0000   1.0000   1.0000   1.0000
     1.0000   1.0000   1.0000   1.0000   1.0000   1.0000   1.0000   1.0000
     1.0000   1.0000   1.0000   1.0000   1.0000   1.0000   1.0000   1.0000
     1.0000   1.0000   1.0000   1.0000   1.0000   1.0000   1.0000   1.0000
     1.0000   1.0000   1.0000   1.0000   1.0000   1.0000   1.0000   1.0000
     1.0000   1.0000   1.0000   1.0000   1.0000   1.0000   1.0000   1.0000
     1.0000   1.0000   1.0000   1.0000   1.0000   1.0000   1.0000   1.0000
     1.0000   1.0000   1.0000   1.0000   1.0000   1.0000   1.0000   1.0000
     1.0000   1.0000   1.0000   1.0000   1.0000   1.0000   1.0000   1.0000
     1.0000   1.0000   1.0000   1.0000   1.0000   1.0000   1.0000   1.0000
     1.0000   1.0000   1.0000   1.0000   1.0000   1.0000   1.0000   1.0000
     1.0000   1.0000   1.0000   1.0000   1.0000   1.0000   1.0000   1.0000
     1.0000   1.0000   1.0000   1.0000   1.0000   1.0000   1.0000   1.0000
     1.0000   1.0000   1.0000   1.0000   1.0000   1.0000   1.0000   1.0000
     1.0000   1.0000   1.0000   1.0000   1.0000   1.0000   1.0000   1.0000
     1.0000   1.0000   1.0000   1.0000   1.0000   1.0000   1.0000   1.0000
     1.0000   1.0000   1.0000   1.0000   1.0000   1.0000   1.0000   1.0000
     1.0000   1.0000   1.0000   1.0000   1.0000   1.0000   1.0000   1.0000
     1.0000   1.0000   1.0000   1.0000   1.0000   1.0000   1.0000   1.0000
     1.0000   1.0000   1.0000   1.0000   1.0000   1.0000   1.0000   1.0000
     1.0000   1.0000   1.0000   1.0000   1.0000   1.0000   1.0000   1.0000
     1.0000   1.0000   1.0000   1.0000   1.0000   1.0000   1.0000   1.0000
     1.0000   1.0000   1.0000   1.0000   1.0000   1.0000   1.0000   1.0000
     1.0000   1.0000   1.0000   1.0000   1.0000   1.0000   1.0000   1.0000
     1.0000   1.0000   1.0000   1.0000   1.0000   1.0000   1.0000   1.0000
     1.0000   1.0000   1.0000   1.0000   1.0000   1.0000   1.0000   1.0000
     1.0000   1.0000   1.0000   1.0000   1.0000   1.0000   1.0000   1.0000
     1.0000   1.0000   1.0000   1.0000   1.0000   1.0000   1.0000   1.0000
     1.0000   1.0000   1.0000   1.0000   1.0000   1.0000   1.0000   1.0000
     1.0000   1.0000   1.0000   1.0000   1.0000   1.0000   1.0000   1.0000
     1.0000   1.0000   1.0000   1.0000   1.0000   1.0000   1.0000   1.0000
     1.0000   1.0000   1.0000   1.0000   1.0000   1.0000   1.0000   1.0000
     1.0000   1.0000   1.0000   1.0000   1.0000   1.0000   1.0000   1.0000
     1.0000   1.0000   1.0000   1.0000   1.0000   1.0000   1.0000   1.0000
     1.0000   1.0000   1.0000   1.0000   1.0000   1.0000   1.0000   1.0000
     1.0000   1.0000   1.0000   1.0000   1.0000   1.0000   1.0000   1.0000
     1.0000   1.0000   1.0000   1.0000   1.0000   1.0000   1.0000   1.0000
     1.0000   1.0000   1.0000   1.0000   1.0000   1.0000   1.0000   1.0000
     1.0000   1.0000   1.0000   1.0000   1.0000   1.0000   1.0000   1.0000
     1.0000   1.0000   1.0000   1.0000   1.0000   1.0000   1.0000   1.0000
     1.0000   1.0000   1.0000   1.0000   1.0000   1.0000   1.0000   1.0000
[...]
     atom   90 type  2   force =     0.00000000    0.00000000    0.00000000
     atom   91 type  1   force =     0.00000000    0.00000000    0.00000000
     atom   92 type  2   force =     0.00000000    0.00000000    0.00000000
     atom   93 type  2   force =     0.00000000    0.00000000    0.00000000
     atom   94 type  1   force =     0.00000000    0.00000000    0.00000000
     atom   95 type  2   force =     0.00000000    0.00000000    0.00000000
     atom   96 type  2   force =     0.00000000    0.00000000    0.00000000
     The SCF correction term to forces
     atom    1 type  1   force =    -0.00003494    0.00000819    0.00001954
     atom    2 type  2   force =    -0.00000326   -0.00000620   -0.00000111
     atom    3 type  2   force =    -0.00000325    0.00000484   -0.00000227
     atom    4 type  1   force =    -0.00001984    0.00001975   -0.00000512
     atom    5 type  2   force =    -0.00000778    0.00000863   -0.00000029
     atom    6 type  2   force =     0.00001161   -0.00000411    0.00000145
     atom    7 type  1   force =     0.00000380    0.00004927   -0.00000318
     atom    8 type  2   force =    -0.00000103    0.00001229   -0.00000785
     atom    9 type  2   force =     0.00000143    0.00001881    0.00001525
     atom   10 type  1   force =    -0.00000102    0.00000624    0.00003287
     atom   11 type  2   force =     0.00000822   -0.00000075    0.00000522
     atom   12 type  2   force =    -0.00000348    0.00000534   -0.00000014
     atom   13 type  1   force =    -0.00003212    0.00000457   -0.00001372
     atom   14 type  2   force =    -0.00001407   -0.00000631    0.00000073
     atom   15 type  2   force =     0.00001218    0.00001628    0.00001494
     atom   16 type  1   force =    -0.00001029    0.00000395    0.00000487
     atom   17 type  2   force =    -0.00001385    0.00000293    0.00002636
     atom   18 type  2   force =     0.00000357   -0.00001570   -0.00000255
     atom   19 type  1   force =     0.00001186   -0.00000198    0.00000197
     atom   20 type  2   force =    -0.00000363   -0.00000764    0.00000013
     atom   21 type  2   force =    -0.00002123   -0.00000001    0.00000286
     atom   22 type  1   force =     0.00000428    0.00001228   -0.00003837
     atom   23 type  2   force =     0.00002407    0.00000828   -0.00000251
     atom   24 type  2   force =    -0.00000637    0.00001266    0.00000064
     atom   25 type  1   force =    -0.00002394    0.00000070    0.00003178
     atom   26 type  2   force =    -0.00000925   -0.00000112    0.00001351
     atom   27 type  2   force =     0.00000784    0.00000613    0.00000787
     atom   28 type  3   force =    -0.00004261   -0.00003384   -0.00000365
     atom   29 type  2   force =    -0.00002059   -0.00002636   -0.00000013
     atom   30 type  2   force =    -0.00001824   -0.00001931   -0.00001125
     atom   31 type  3   force =    -0.00002757   -0.00003425   -0.00000020
     atom   32 type  2   force =    -0.00002250   -0.00001447   -0.00000769
     atom   33 type  2   force =    -0.00001621   -0.00002388   -0.00001179
     atom   34 type  3   force =    -0.00001648   -0.00000980   -0.00000511
     atom   35 type  2   force =    -0.00000266    0.00000115   -0.00001337
     atom   36 type  2   force =    -0.00001032   -0.00000495   -0.00003237
     atom   37 type  1   force =    -0.00002829    0.00000153   -0.00003158
     atom   38 type  2   force =     0.00001382    0.00000912   -0.00003601
     atom   39 type  2   force =     0.00001174   -0.00000335   -0.00001070
     atom   40 type  1   force =    -0.00003421   -0.00001112    0.00000192
     atom   41 type  2   force =     0.00000822    0.00001021    0.00000718
     atom   42 type  2   force =     0.00001975    0.00001410   -0.00001475
     atom   43 type  1   force =    -0.00001098   -0.00000861   -0.00000326
     atom   44 type  2   force =     0.00002168    0.00002619   -0.00000320
     atom   45 type  2   force =     0.00000565   -0.00000248   -0.00001211
     atom   46 type  3   force =    -0.00001113   -0.00001118    0.00001003
     atom   47 type  2   force =     0.00000954   -0.00001206    0.00001952
     atom   48 type  2   force =    -0.00000528    0.00000923    0.00002057
     atom   49 type  1   force =     0.00003787    0.00001237    0.00001177
     atom   50 type  2   force =     0.00001607   -0.00001095   -0.00000312
     atom   51 type  2   force =    -0.00001927    0.00000483    0.00000496
     atom   52 type  1   force =     0.00003037    0.00000453    0.00000470
     atom   53 type  2   force =     0.00000230   -0.00001070   -0.00000046
     atom   54 type  2   force =    -0.00001257   -0.00000877   -0.00001379
     atom   55 type  3   force =    -0.00000968    0.00001157   -0.00000443
     atom   56 type  2   force =    -0.00002406    0.00000180   -0.00001494
     atom   57 type  2   force =     0.00000432   -0.00001195    0.00001120
     atom   58 type  1   force =    -0.00000694    0.00000081    0.00004518
     atom   59 type  2   force =    -0.00000093    0.00000386    0.00000978
     atom   60 type  2   force =     0.00001349   -0.00000179   -0.00003425
     atom   61 type  1   force =     0.00003344    0.00001276   -0.00001346
     atom   62 type  2   force =     0.00000467   -0.00000029   -0.00002539
     atom   63 type  2   force =    -0.00000325    0.00000093    0.00000893
     atom   64 type  1   force =     0.00001252    0.00000322    0.00000159
     atom   65 type  2   force =     0.00000693    0.00001265    0.00000912
     atom   66 type  2   force =     0.00000636   -0.00000596   -0.00002287
     atom   67 type  1   force =    -0.00000819   -0.00002423    0.00000989
     atom   68 type  2   force =    -0.00001006   -0.00000191   -0.00000081
     atom   69 type  2   force =     0.00000524    0.00001068   -0.00000307
     atom   70 type  1   force =    -0.00001095    0.00001009   -0.00004650
     atom   71 type  2   force =     0.00000165   -0.00000025   -0.00000137
     atom   72 type  2   force =    -0.00000159    0.00000067    0.00000445
     atom   73 type  1   force =     0.00003595   -0.00002225    0.00001902
     atom   74 type  2   force =     0.00000585   -0.00001132    0.00000293
     atom   75 type  2   force =    -0.00000434    0.00000036   -0.00002438
     atom   76 type  1   force =     0.00006353    0.00000010   -0.00000199
     atom   77 type  2   force =     0.00001713    0.00000597   -0.00000726
     atom   78 type  2   force =     0.00000970   -0.00000384    0.00000821
     atom   79 type  1   force =     0.00001336   -0.00000976    0.00000075
     atom   80 type  2   force =     0.00001550    0.00000882   -0.00001293
     atom   81 type  2   force =     0.00001429    0.00000362   -0.00000527
     atom   82 type  1   force =     0.00000374    0.00000022    0.00001450
     atom   83 type  2   force =    -0.00000761   -0.00000342    0.00000997
     atom   84 type  2   force =    -0.00000136   -0.00002154    0.00000712
     atom   85 type  1   force =     0.00003641   -0.00002374   -0.00002212
     atom   86 type  2   force =     0.00002081   -0.00000691    0.00000299
     atom   87 type  2   force =    -0.00001033    0.00000144    0.00000351
     atom   88 type  3   force =     0.00002850    0.00001450    0.00000154
     atom   89 type  2   force =    -0.00000253   -0.00000699   -0.00000511
     atom   90 type  2   force =     0.00001001   -0.00002010   -0.00000650
     atom   91 type  1   force =    -0.00000041    0.00001600   -0.00000036
     atom   92 type  2   force =    -0.00000369   -0.00000827    0.00000420
     atom   93 type  2   force =    -0.00001002   -0.00000745    0.00000892
     atom   94 type  1   force =     0.00000435   -0.00000963   -0.00001298
     atom   95 type  2   force =    -0.00001057    0.00000524   -0.00001199
     atom   96 type  2   force =     0.00001103    0.00000085    0.00000725

     Total force =     0.004904     Total SCF correction =     0.000258
     Energy error            =      6.1E-05 Ry
     Gradient error          =      7.7E-04 Ry/Bohr

     bfgs converged in   9 scf cycles and   8 bfgs steps
     (criteria: energy <  1.0E-04 Ry, force <  1.0E-03 Ry/Bohr)

     End of BFGS Geometry Optimization

     Final energy             =  -11609.4036988060 Ry

     File ./tmp/calc_10ScSZ_Perfect.bfgs deleted, as requested
Begin final coordinates

ATOMIC_POSITIONS (angstrom)
Zr               0.0060127428       -0.0437858143        0.0410905220
O                1.2870110912        1.2827055550        1.2877361569
O                3.8615298967        3.8253894353        3.8599626399
Zr               0.0017428396        2.5593762954        2.5633293368
O                1.2731947664        3.8224601675        3.8511467174
O                3.8400100648        1.2745607109        1.2823863924
Zr               2.5476594606       -0.0564395653        2.5649102734
O                3.8371551143        1.2752099521        3.8439689971
O                1.2647038303        3.8211150057        1.2655179649
Zr               2.5621131644        2.5718276760        0.0173100556
O                3.8545950982        3.8239400940        1.2649981848
O                1.2849181265        1.2816574857        3.8395918115
Zr               0.0053391806       -0.0421736114        5.0886584587
O                1.2822814644        1.2879817293        6.4024207608
O                3.8437876694        3.8387651076        8.9636746818
Zr               0.0052892424        2.5593311819        7.6892470934
O                1.2872401680        3.8388002496        8.9636884700
O                3.8479083546        1.2886662782        6.4064155423
Zr               2.5834782554       -0.0592605611        7.6868129463
O                3.8464049065        1.2899111603        8.9689277375
O                1.2833644725        3.8457237581        6.4029265140
Zr               2.5617274661        2.5746902449        5.1074125250
O                3.8421778293        3.8353287117        6.4112657786
O                1.2802394045        1.2790500795        8.9736954317
Zr               0.0436993677        5.1684950205        0.0388049569
O                1.2745360405        6.3943372561        1.2663054979
O                3.8540496932        8.9787551915        3.8283894553
Sc               0.0345442977        7.6855315742        2.5618446286
O                1.2888974411        8.9933798881        3.8488315800
O                3.8759087030        6.4080646328        1.2801869316
Sc               2.5507573600        5.1770866482        2.5605906208
O                3.8740958291        6.4099425672        3.8423808518
O                1.2865240971        8.9946751241        1.2806411234
Sc               2.5630654845        7.6729170999        0.0188242425
O                3.8504076784        8.9776041017        1.2965293562
O                1.2734456657        6.3941521555        3.8617225494
Zr               0.0432041990        5.1702650911        5.0830217283
O                1.2679574188        6.3988786253        6.4246324303
O                3.8460113468        8.9902765027        8.9747884376
Zr               0.0294632733        7.6865915240        7.6886438073
O                1.2676374026        8.9693593781        8.9590866725
O                3.8391888288        6.3777399184        6.4030674944
Zr               2.5805659239        5.1756357512        7.6843305179
O                3.8373354216        6.3817110547        8.9672214055
O                1.2683888785        8.9760996945        6.4195191420
Sc               2.5654836406        7.6717300762        5.1072941450
O                3.8465433287        8.9887641520        6.4001654323
O                1.2675405627        6.3926658752        8.9517056506
Zr               5.1175263188       -0.0435035127        0.0051690670
O                6.3981234658        1.2956425559        1.2721588033
O                8.9721687850        3.8443976557        3.8377841628
Zr               5.1243908418        2.5600236825        2.5651217525
O                6.4205963637        3.8491825600        3.8415196411
O                8.9862837522        1.2945318743        1.2755263139
Sc               7.6983744520       -0.0213951312        2.5668942980
O                8.9849159254        1.2978350418        3.8600883830
O                6.4118292575        3.8519922200        1.2853111275
Zr               7.6872525201        2.5450652141        0.0205688015
O                8.9647594362        3.8406547009        1.2875716828
O                6.3938613625        1.2938824716        3.8625903684
Zr               5.1204025003       -0.0422514594        5.1210323408
O                6.4073709994        1.2820166338        6.4174415212
O                8.9670363656        3.8428713328        8.9694071327
Zr               5.1223858248        2.5615633787        7.6871623923
O                6.4037630808        3.8291587579        8.9667881334
O                8.9635840095        1.2726013709        6.4153120742
Zr               7.6726427749       -0.0218799470        7.6913093617
O                8.9621073325        1.2801571009        8.9706322929
O                6.4012673462        3.8354786332        6.4084486247
Zr               7.6906475348        2.5479967461        5.1112345819
O                8.9649493673        3.8342518572        6.4061777992
O                6.4039316889        1.2754733389        8.9671182134
Zr               5.0866094200        5.1663620606        0.0029629539
O                6.4145106850        6.4063141012        1.2865727133
O                8.9649100214        8.9699134379        3.8742064887
Zr               5.0887795008        7.6815777208        2.5614949062
O                6.3912769688        8.9522658004        3.8549441428
O                8.9521538013        6.3860422162        1.2677080147
Zr               7.7030705769        5.1412987354        2.5603440492
O                8.9483178767        6.3899622684        3.8525711827
O                6.3900300697        8.9551913933        1.2727338551
Zr               7.6889053446        7.7057515514        0.0237964211
O                8.9629016511        8.9664627690        1.2572388898
O                6.4119039277        6.4043833734        3.8338861206
Zr               5.0883457142        5.1679594159        5.1171509557
O                6.4188118743        6.3921407389        6.3892143340
O                8.9716268940        8.9705534914        8.9630275531
Sc               5.0978509123        7.6798351531        7.6870478944
O                6.4249901428        8.9757371324        8.9786989630
O                8.9718570634        6.4069166795        6.4066473860
Zr               7.6748587233        5.1436074969        7.6882107409
O                8.9712768022        6.4154412709        8.9637135802
O                6.4265943284        8.9820763057        6.3982070048
Zr               7.6882729516        7.7019979999        5.1037930947
O                8.9716436652        8.9637208963        6.4185998248
O                6.4184362035        6.3869384884        8.9823509823
End final coordinates


     Message from routine punch:
     Nothing written, as per user request (disk_io='none')
 
     init_run     :     38.67s CPU     23.67s WALL (       1 calls)
     electrons    :   5055.02s CPU   3221.55s WALL (       9 calls)
     update_pot   :    194.51s CPU     76.12s WALL (       8 calls)
     forces       :     44.40s CPU     35.60s WALL (       9 calls)

     Called by init_run:
     wfcinit      :      6.27s CPU      8.35s WALL (       1 calls)
     wfcinit:atom :      0.11s CPU      0.11s WALL (       8 calls)
     wfcinit:wfcr :      4.21s CPU      4.23s WALL (       8 calls)
     potinit      :     29.83s CPU     12.53s WALL (       1 calls)
     hinit0       :      1.88s CPU      1.25s WALL (       1 calls)

     Called by electrons:
     c_bands      :   1684.63s CPU   1680.80s WALL (     132 calls)
     sum_band     :    304.81s CPU    303.81s WALL (     132 calls)
     v_of_rho     :      9.41s CPU      8.47s WALL (     136 calls)
     v_h          :      4.99s CPU      3.97s WALL (     136 calls)
     v_xc         :      4.72s CPU      4.79s WALL (     145 calls)
     newd         :     17.74s CPU     17.69s WALL (     136 calls)
                                       17.69s GPU  (     136 calls)
     PAW_pot      :   3401.20s CPU   1341.41s WALL (     144 calls)
     mix_rho      :     12.85s CPU     13.61s WALL (     132 calls)

     Called by c_bands:
     init_us_2    :     23.22s CPU     23.19s WALL (    2256 calls)
     cegterg      :   1359.97s CPU   1358.58s WALL (    1070 calls)

     Called by sum_band:
     sum_band:wei :      0.20s CPU      0.20s WALL (     132 calls)
                                        0.20s GPU  (     132 calls)
     sum_band:loo :    279.91s CPU    278.92s WALL (     132 calls)
                                      278.92s GPU  (     132 calls)
     sum_band:buf :    137.11s CPU    137.02s WALL (    1056 calls)
                                      137.01s GPU  (    1056 calls)
     sum_band:ini :      8.51s CPU      8.49s WALL (    1056 calls)
                                        8.49s GPU  (    1056 calls)
     sum_band:cal :    261.81s CPU    101.83s WALL (    1120 calls)
                                       35.57s GPU  (    1056 calls)
     sum_band:bec :      5.06s CPU      4.62s WALL (    1120 calls)
                                        4.43s GPU  (    1056 calls)
     addusdens    :     21.32s CPU     21.35s WALL (     132 calls)
                                       21.35s GPU  (     132 calls)
     addusd:skk   :      1.14s CPU      1.14s WALL (     396 calls)
                                        1.14s GPU  (     396 calls)

     Called by *egterg:
     cdiaghg      :    119.34s CPU    119.52s WALL (    7353 calls)
                                      119.47s GPU  (    7353 calls)
     cegterg:over :    182.21s CPU    182.24s WALL (    6387 calls)
     cegterg:upda :     76.64s CPU     76.60s WALL (    6387 calls)
     cegterg:last :    158.01s CPU    158.01s WALL (    2629 calls)
     h_psi        :    719.49s CPU    718.22s WALL (    7465 calls)
                                      716.66s GPU  (    7465 calls)
     s_psi        :     24.27s CPU     24.31s WALL (    7465 calls)
     g_psi        :      0.07s CPU      7.28s WALL (    6387 calls)
                                        7.23s GPU  (    6387 calls)

     Called by h_psi:
     h_psi:calbec :      0.60s CPU    104.96s WALL (    7465 calls)
                                      104.90s GPU  (    7465 calls)
     vloc_psi     :    485.85s CPU    484.25s WALL (    7465 calls)
                                      484.20s GPU  (    7465 calls)
     add_vuspsi   :     20.40s CPU    122.33s WALL (    7465 calls)
                                      122.27s GPU  (    7465 calls)

     General routines
     calbec       :    262.05s CPU     66.61s WALL (    8873 calls)
     fft          :     14.43s CPU      5.88s WALL (    1862 calls)
                                        0.80s GPU  (    1726 calls)
     ffts         :      3.63s CPU      1.56s WALL (     268 calls)
                                        0.03s GPU  (     132 calls)
     fftw         :      4.07s CPU    387.35s WALL (  208960 calls)
                                      386.04s GPU  (  208960 calls)
     interpolate  :     21.25s CPU      9.59s WALL (     136 calls)
 
     Parallel routines

     PAW routines
     PAW_pot      :   3401.20s CPU   1341.41s WALL (     144 calls)
 
     PWSCF        :      1h36m CPU  58m31.17s WALL

 
   This run was terminated on:   5:31:38  26Jan2026            

=------------------------------------------------------------------------------=
   JOB DONE.
=------------------------------------------------------------------------------=
Warning: ieee_divide_by_zero is signaling
Warning: ieee_inexact is signaling
FORTRAN STOP
