level=info msg="Setting CUDA_MODULE_LOADING=LAZY. Please see https://docs.nvidia.com for more information."

     Program PWSCF v.7.3.1 starts on 27Jan2026 at 20: 9:20 

     This program is part of the open-source Quantum ESPRESSO suite
     for quantum simulation of materials; please cite
         "P. Giannozzi et al., J. Phys.:Condens. Matter 21 395502 (2009);
         "P. Giannozzi et al., J. Phys.:Condens. Matter 29 465901 (2017);
         "P. Giannozzi et al., J. Chem. Phys. 152 154105 (2020);
          URL http://www.quantum-espresso.org", 
     in publications or presentations arising from this work. More details at
     http://www.quantum-espresso.org/quote

     Parallel version (MPI & OpenMP), running on       4 processor cores
     Number of MPI processes:                 1
     Threads/MPI process:                     4

     MPI processes distributed on     1 nodes
     20348 MiB available memory on the printing compute node when the environment starts
 
     Reading input from ./FullRun_20260126_1230/9Sc1YSZ_Vac_4Zr/espresso.pwi
Warning: card &CELL ignored
Warning: card / ignored
Warning: card &FCP ignored
Warning: card / ignored
Warning: card &RISM ignored
Warning: card / ignored

     Current dimensions of program PWSCF are:
     Max number of different atomic species (ntypx) = 10
     Max number of k-points (npk) =  40000
     Max angular momentum in pseudopotentials (lmaxx) =  4
     file Zr.pbe-spn-kjpaw_psl.1.0.0.UPF: wavefunction(s)  4S 4P renormalized
     file O.pbe-n-kjpaw_psl.1.0.0.UPF: wavefunction(s)  2S 2P renormalized
     file Sc.pbe-spn-kjpaw_psl.1.0.0.UPF: wavefunction(s)  3S 3P 3D renormalized
     file Y.pbe-spn-kjpaw_psl.1.0.0.UPF: wavefunction(s)  4S 4P renormalized
 
     Subspace diagonalization in iterative solution of the eigenvalue problem:
     a serial algorithm will be used

 
     G-vector sticks info
     --------------------
     sticks:   dense  smooth     PW     G-vecs:    dense   smooth      PW
     Sum       14337    7153   1925              1290383   456055   63461
 
     Using Slab Decomposition
 


     bravais-lattice index     =            0
     lattice parameter (alat)  =      19.3697  a.u.
     unit-cell volume          =    7267.2182 (a.u.)^3
     number of atoms/cell      =           95
     number of atomic types    =            4
     number of electrons       =       756.00
     number of Kohn-Sham states=          454
     kinetic-energy cutoff     =      60.0000  Ry
     charge density cutoff     =     480.0000  Ry
     scf convergence threshold =      1.0E-06
     mixing beta               =       0.3000
     number of iterations used =            8  plain     mixing
     energy convergence thresh.=      1.0E-04
     force convergence thresh. =      1.0E-03
     Exchange-correlation= SLA  PW   PBX  PBC
                           (   1   4   3   4   0   0   0)
     nstep                     =          100


     GPU acceleration is ACTIVE.  1 visible GPUs per MPI rank
     GPU-aware MPI enabled


     GPU used by master process:

        Device Number: 0
        Device name: Tesla V100-SXM2-16GB
        Compute capability : 70
        Ratio of single to double precision performance  : 2
        Memory Clock Rate (KHz): 877000
        Memory Bus Width (bits): 4096
        Peak Memory Bandwidth (GB/s): 898.05

     celldm(1)=  19.369693  celldm(2)=   0.000000  celldm(3)=   0.000000
     celldm(4)=   0.000000  celldm(5)=   0.000000  celldm(6)=   0.000000

     crystal axes: (cart. coord. in units of alat)
               a(1) = (   1.000000   0.000000   0.000000 )  
               a(2) = (   0.000000   1.000000   0.000000 )  
               a(3) = (   0.000000   0.000000   1.000000 )  

     reciprocal axes: (cart. coord. in units 2 pi/alat)
               b(1) = (  1.000000  0.000000  0.000000 )  
               b(2) = (  0.000000  1.000000  0.000000 )  
               b(3) = (  0.000000  0.000000  1.000000 )  


     PseudoPot. # 1 for Zr read from file:
     ./pseudos/Zr.pbe-spn-kjpaw_psl.1.0.0.UPF
     MD5 check sum: 02112c41713a0468aff2bb39ef194e36
     Pseudo is Projector augmented-wave + core cor, Zval = 12.0
     Generated using &quot;atomic&quot; code by A. Dal Corso  v.6.2.2
     Shape of augmentation charge: PSQ
     Using radial grid of 1225 points,  6 beta functions with: 
                l(1) =   0
                l(2) =   0
                l(3) =   1
                l(4) =   1
                l(5) =   2
                l(6) =   2
     Q(r) pseudized with 0 coefficients 


     PseudoPot. # 2 for O  read from file:
     ./pseudos/O.pbe-n-kjpaw_psl.1.0.0.UPF
     MD5 check sum: e99d9cef9b487d1ca56f5b95ecd0fd7a
     Pseudo is Projector augmented-wave + core cor, Zval =  6.0
     Generated using &quot;atomic&quot; code by A. Dal Corso  v.6.3
     Shape of augmentation charge: PSQ
     Using radial grid of 1095 points,  4 beta functions with: 
                l(1) =   0
                l(2) =   0
                l(3) =   1
                l(4) =   1
     Q(r) pseudized with 0 coefficients 


     PseudoPot. # 3 for Sc read from file:
     ./pseudos/Sc.pbe-spn-kjpaw_psl.1.0.0.UPF
     MD5 check sum: d5ac433e587a0148d610ca85a1be5559
     Pseudo is Projector augmented-wave + core cor, Zval = 11.0
     Generated using &quot;atomic&quot; code by A. Dal Corso  v.6.2.2
     Shape of augmentation charge: PSQ
     Using radial grid of 1173 points,  6 beta functions with: 
                l(1) =   0
                l(2) =   0
                l(3) =   1
                l(4) =   1
                l(5) =   2
                l(6) =   2
     Q(r) pseudized with 0 coefficients 


     PseudoPot. # 4 for Y  read from file:
     ./pseudos/Y.pbe-spn-kjpaw_psl.1.0.0.UPF
     MD5 check sum: d52e8d8ffa9ef5a9f13bb13aaba2e897
     Pseudo is Projector augmented-wave + core cor, Zval = 11.0
     Generated using &quot;atomic&quot; code by A. Dal Corso  v.6.2.2
     Shape of augmentation charge: PSQ
     Using radial grid of 1223 points,  6 beta functions with: 
                l(1) =   0
                l(2) =   0
                l(3) =   1
                l(4) =   1
                l(5) =   2
                l(6) =   2
     Q(r) pseudized with 0 coefficients 


     atomic species   valence    mass     pseudopotential
     Zr               12.00    91.22400     Zr( 1.00)
     O                 6.00    15.99900     O ( 1.00)
     Sc               11.00    44.95591     Sc( 1.00)
     Y                11.00    88.90584     Y ( 1.00)

     No symmetry found


                                    s                        frac. trans.

      isym =  1     identity                                     

 cryst.   s( 1) = (     1          0          0      )
                  (     0          1          0      )
                  (     0          0          1      )

 cart.    s( 1) = (  1.0000000  0.0000000  0.0000000 )
                  (  0.0000000  1.0000000  0.0000000 )
                  (  0.0000000  0.0000000  1.0000000 )


   Cartesian axes

     site n.     atom                  positions (alat units)
         1        Zr     tau(   1) = (   0.0004846  -0.0001349   0.0006319  )
         2        O      tau(   2) = (   0.1264859   0.1247716   0.1247716  )
         3        Sc     tau(   3) = (   0.0005293   0.2495479   0.2495456  )
         4        O      tau(   4) = (   0.1252361   0.3731334   0.3733172  )
         5        O      tau(   5) = (   0.3744514   0.1240119   0.1253066  )
         6        Zr     tau(   6) = (   0.2491141  -0.0013779   0.2514299  )
         7        O      tau(   7) = (   0.3747797   0.1250659   0.3736100  )
         8        O      tau(   8) = (   0.1244689   0.3751082   0.1238771  )
         9        Zr     tau(   9) = (   0.2503665   0.2494140  -0.0002846  )
        10        O      tau(  10) = (   0.3744130   0.3768071   0.1249868  )
        11        O      tau(  11) = (   0.1239681   0.1258025   0.3738089  )
        12        Sc     tau(  12) = (   0.0002038  -0.0019119   0.4987042  )
        13        O      tau(  13) = (   0.1251921   0.1257205   0.6251672  )
        14        O      tau(  14) = (   0.3748872   0.3747062   0.8735575  )
        15        Zr     tau(  15) = (  -0.0007023   0.2495506   0.7510313  )
        16        O      tau(  16) = (   0.1253352   0.3732800   0.8753162  )
        17        O      tau(  17) = (   0.3746243   0.1243396   0.6255968  )
        18        Zr     tau(  18) = (   0.2510059   0.0009086   0.7491813  )
        19        O      tau(  19) = (   0.3746983   0.1253232   0.8759518  )
        20        O      tau(  20) = (   0.1245325   0.3748189   0.6239206  )
        21        Zr     tau(  21) = (   0.2488330   0.2507927   0.5013232  )
        22        O      tau(  22) = (   0.3749297   0.3759791   0.6253528  )
        23        O      tau(  23) = (   0.1243706   0.1253526   0.8765005  )
        24        Zr     tau(  24) = (  -0.0000350   0.5015265  -0.0025558  )
        25        O      tau(  25) = (   0.1258019   0.6250849   0.1247083  )
        26        O      tau(  26) = (   0.3750895   0.8730609   0.3747857  )
        27        Y      tau(  27) = (   0.0003484   0.7514418   0.2494944  )
        28        O      tau(  28) = (   0.1242112   0.8745105   0.3758931  )
        29        O      tau(  29) = (   0.3753207   0.6244832   0.1255007  )
        30        Zr     tau(  30) = (   0.2500947   0.5009450   0.2493151  )
        31        O      tau(  31) = (   0.3746803   0.6246175   0.3735722  )
        32        O      tau(  32) = (   0.1252889   0.8752547   0.1250050  )
        33        Sc     tau(  33) = (   0.2497711   0.7486192  -0.0004104  )
        34        O      tau(  34) = (   0.3746656   0.8742173   0.1248426  )
        35        O      tau(  35) = (   0.1253942   0.6268402   0.3751703  )
        36        Zr     tau(  36) = (   0.0002513   0.4999274   0.4981280  )
        37        O      tau(  37) = (   0.1249741   0.6250588   0.6274032  )
        38        O      tau(  38) = (   0.3748123   0.8752942   0.8749661  )
        39        Zr     tau(  39) = (  -0.0011402   0.7511149   0.7507336  )
        40        O      tau(  40) = (   0.1257717   0.8741128   0.8763686  )
        41        O      tau(  41) = (   0.3736323   0.6255725   0.6271370  )
        42        Zr     tau(  42) = (   0.2490336   0.4994475   0.7500972  )
        43        O      tau(  43) = (   0.3745088   0.6234872   0.8750669  )
        44        O      tau(  44) = (   0.1239636   0.8754620   0.6241030  )
        45        Sc     tau(  45) = (   0.2515121   0.7492359   0.4996858  )
        46        O      tau(  46) = (   0.3757937   0.8737992   0.6252219  )
        47        O      tau(  47) = (   0.1262753   0.6234317   0.8751801  )
        48        Zr     tau(  48) = (   0.5002535   0.0007628  -0.0012068  )
        49        O      tau(  49) = (   0.6237117   0.1255092   0.1252897  )
        50        O      tau(  50) = (   0.8752444   0.3753380   0.3743366  )
        51        Zr     tau(  51) = (   0.5002266   0.2502859   0.2493031  )
        52        O      tau(  52) = (   0.6268203   0.3754623   0.3738378  )
        53        O      tau(  53) = (   0.8756405   0.1240491   0.1257679  )
        54        Sc     tau(  54) = (   0.7511303  -0.0008007   0.2509399  )
        55        O      tau(  55) = (   0.8754027   0.1258020   0.3768505  )
        56        O      tau(  56) = (   0.6247606   0.3742646   0.1241322  )
        57        Zr     tau(  57) = (   0.7492041   0.2499248   0.0003328  )
        58        O      tau(  58) = (   0.8752699   0.3758070   0.1250127  )
        59        O      tau(  59) = (   0.6264181   0.1247418   0.3776538  )
        60        Zr     tau(  60) = (   0.5006104  -0.0008363   0.4989552  )
        61        O      tau(  61) = (   0.6254707   0.1247820   0.6256966  )
        62        O      tau(  62) = (   0.8754617   0.3749289   0.8741739  )
        63        Zr     tau(  63) = (   0.4985221   0.2495644   0.7508355  )
        64        O      tau(  64) = (   0.6252089   0.3737846   0.8751690  )
        65        O      tau(  65) = (   0.8753759   0.1241377   0.6251500  )
        66        Zr     tau(  66) = (   0.7500568  -0.0011151   0.7503491  )
        67        O      tau(  67) = (   0.8755471   0.1260566   0.8760281  )
        68        O      tau(  68) = (   0.6236559   0.3740850   0.6255025  )
        69        Zr     tau(  69) = (   0.7505013   0.2505025   0.5037588  )
        70        O      tau(  70) = (   0.8755570   0.3761079   0.6259307  )
        71        O      tau(  71) = (   0.6256355   0.1246924   0.8757405  )
        72        Zr     tau(  72) = (   0.4992460   0.4997690  -0.0004735  )
        73        O      tau(  73) = (   0.6250799   0.6272582   0.1231783  )
        74        O      tau(  74) = (   0.8756695   0.8734266   0.3745396  )
        75        Zr     tau(  75) = (   0.5010624   0.7500627   0.2489485  )
        76        O      tau(  76) = (   0.6243021   0.8756630   0.3742874  )
        77        O      tau(  77) = (   0.8752112   0.6250445   0.1243643  )
        78        Zr     tau(  78) = (   0.7520917   0.5006185   0.2480243  )
        79        O      tau(  79) = (   0.8751819   0.6243544   0.3758316  )
        80        O      tau(  80) = (   0.6242268   0.8748881   0.1254927  )
        81        Zr     tau(  81) = (   0.7508446   0.7488290  -0.0003263  )
        82        O      tau(  82) = (   0.8745366   0.8743626   0.1267224  )
        83        O      tau(  83) = (   0.6253951   0.6237699   0.3758955  )
        84        Zr     tau(  84) = (   0.5020704   0.5010073   0.4985177  )
        85        O      tau(  85) = (   0.6245276   0.6262360   0.6243096  )
        86        O      tau(  86) = (   0.8754330   0.8757557   0.8740957  )
        87        Zr     tau(  87) = (   0.4999419   0.7468378   0.7490006  )
        88        O      tau(  88) = (   0.6247536   0.8737827   0.8765926  )
        89        O      tau(  89) = (   0.8736047   0.6245707   0.6251276  )
        90        Zr     tau(  90) = (   0.7514061   0.4985992   0.7511348  )
        91        O      tau(  91) = (   0.8750100   0.6240424   0.8754508  )
        92        O      tau(  92) = (   0.6251942   0.8744144   0.6250681  )
        93        Zr     tau(  93) = (   0.7496241   0.7501107   0.5006460  )
        94        O      tau(  94) = (   0.8765473   0.8737924   0.6270810  )
        95        O      tau(  95) = (   0.6230955   0.6248519   0.8755740  )

   Crystallographic axes

     site n.     atom                  positions (cryst. coord.)
         1        Zr     tau(   1) = (  0.0004846 -0.0001349  0.0006319  )
         2        O      tau(   2) = (  0.1264859  0.1247716  0.1247716  )
         3        Sc     tau(   3) = (  0.0005293  0.2495479  0.2495456  )
         4        O      tau(   4) = (  0.1252361  0.3731334  0.3733172  )
         5        O      tau(   5) = (  0.3744514  0.1240119  0.1253066  )
         6        Zr     tau(   6) = (  0.2491141 -0.0013779  0.2514299  )
         7        O      tau(   7) = (  0.3747797  0.1250659  0.3736100  )
         8        O      tau(   8) = (  0.1244689  0.3751082  0.1238771  )
         9        Zr     tau(   9) = (  0.2503665  0.2494140 -0.0002846  )
        10        O      tau(  10) = (  0.3744130  0.3768071  0.1249868  )
        11        O      tau(  11) = (  0.1239681  0.1258025  0.3738089  )
        12        Sc     tau(  12) = (  0.0002038 -0.0019119  0.4987042  )
        13        O      tau(  13) = (  0.1251921  0.1257205  0.6251672  )
        14        O      tau(  14) = (  0.3748872  0.3747062  0.8735575  )
        15        Zr     tau(  15) = ( -0.0007023  0.2495506  0.7510313  )
        16        O      tau(  16) = (  0.1253352  0.3732800  0.8753162  )
        17        O      tau(  17) = (  0.3746243  0.1243396  0.6255968  )
        18        Zr     tau(  18) = (  0.2510059  0.0009086  0.7491813  )
        19        O      tau(  19) = (  0.3746983  0.1253232  0.8759518  )
        20        O      tau(  20) = (  0.1245325  0.3748189  0.6239206  )
        21        Zr     tau(  21) = (  0.2488330  0.2507927  0.5013232  )
        22        O      tau(  22) = (  0.3749297  0.3759791  0.6253528  )
        23        O      tau(  23) = (  0.1243706  0.1253526  0.8765005  )
        24        Zr     tau(  24) = ( -0.0000350  0.5015265 -0.0025558  )
        25        O      tau(  25) = (  0.1258019  0.6250849  0.1247083  )
        26        O      tau(  26) = (  0.3750895  0.8730609  0.3747857  )
        27        Y      tau(  27) = (  0.0003484  0.7514418  0.2494944  )
        28        O      tau(  28) = (  0.1242112  0.8745105  0.3758931  )
        29        O      tau(  29) = (  0.3753207  0.6244832  0.1255007  )
        30        Zr     tau(  30) = (  0.2500947  0.5009450  0.2493151  )
        31        O      tau(  31) = (  0.3746803  0.6246175  0.3735722  )
        32        O      tau(  32) = (  0.1252889  0.8752547  0.1250050  )
        33        Sc     tau(  33) = (  0.2497711  0.7486192 -0.0004104  )
        34        O      tau(  34) = (  0.3746656  0.8742173  0.1248426  )
        35        O      tau(  35) = (  0.1253942  0.6268402  0.3751703  )
        36        Zr     tau(  36) = (  0.0002513  0.4999274  0.4981280  )
        37        O      tau(  37) = (  0.1249741  0.6250588  0.6274032  )
        38        O      tau(  38) = (  0.3748123  0.8752942  0.8749661  )
        39        Zr     tau(  39) = ( -0.0011402  0.7511149  0.7507336  )
        40        O      tau(  40) = (  0.1257717  0.8741128  0.8763686  )
        41        O      tau(  41) = (  0.3736323  0.6255725  0.6271370  )
        42        Zr     tau(  42) = (  0.2490336  0.4994475  0.7500972  )
        43        O      tau(  43) = (  0.3745088  0.6234872  0.8750669  )
        44        O      tau(  44) = (  0.1239636  0.8754620  0.6241030  )
        45        Sc     tau(  45) = (  0.2515121  0.7492359  0.4996858  )
        46        O      tau(  46) = (  0.3757937  0.8737992  0.6252219  )
        47        O      tau(  47) = (  0.1262753  0.6234317  0.8751801  )
        48        Zr     tau(  48) = (  0.5002535  0.0007628 -0.0012068  )
        49        O      tau(  49) = (  0.6237117  0.1255092  0.1252897  )
        50        O      tau(  50) = (  0.8752444  0.3753380  0.3743366  )
        51        Zr     tau(  51) = (  0.5002266  0.2502859  0.2493031  )
        52        O      tau(  52) = (  0.6268203  0.3754623  0.3738378  )
        53        O      tau(  53) = (  0.8756405  0.1240491  0.1257679  )
        54        Sc     tau(  54) = (  0.7511303 -0.0008007  0.2509399  )
        55        O      tau(  55) = (  0.8754027  0.1258020  0.3768505  )
        56        O      tau(  56) = (  0.6247606  0.3742646  0.1241322  )
        57        Zr     tau(  57) = (  0.7492041  0.2499248  0.0003328  )
        58        O      tau(  58) = (  0.8752699  0.3758070  0.1250127  )
        59        O      tau(  59) = (  0.6264181  0.1247418  0.3776538  )
        60        Zr     tau(  60) = (  0.5006104 -0.0008363  0.4989552  )
        61        O      tau(  61) = (  0.6254707  0.1247820  0.6256966  )
        62        O      tau(  62) = (  0.8754617  0.3749289  0.8741739  )
        63        Zr     tau(  63) = (  0.4985221  0.2495644  0.7508355  )
        64        O      tau(  64) = (  0.6252089  0.3737846  0.8751690  )
        65        O      tau(  65) = (  0.8753759  0.1241377  0.6251500  )
        66        Zr     tau(  66) = (  0.7500568 -0.0011151  0.7503491  )
        67        O      tau(  67) = (  0.8755471  0.1260566  0.8760281  )
        68        O      tau(  68) = (  0.6236559  0.3740850  0.6255025  )
        69        Zr     tau(  69) = (  0.7505013  0.2505025  0.5037588  )
        70        O      tau(  70) = (  0.8755570  0.3761079  0.6259307  )
        71        O      tau(  71) = (  0.6256355  0.1246924  0.8757405  )
        72        Zr     tau(  72) = (  0.4992460  0.4997690 -0.0004735  )
        73        O      tau(  73) = (  0.6250799  0.6272582  0.1231783  )
        74        O      tau(  74) = (  0.8756695  0.8734266  0.3745396  )
        75        Zr     tau(  75) = (  0.5010624  0.7500627  0.2489485  )
        76        O      tau(  76) = (  0.6243021  0.8756630  0.3742874  )
        77        O      tau(  77) = (  0.8752112  0.6250445  0.1243643  )
        78        Zr     tau(  78) = (  0.7520917  0.5006185  0.2480243  )
        79        O      tau(  79) = (  0.8751819  0.6243544  0.3758316  )
        80        O      tau(  80) = (  0.6242268  0.8748881  0.1254927  )
        81        Zr     tau(  81) = (  0.7508446  0.7488290 -0.0003263  )
        82        O      tau(  82) = (  0.8745366  0.8743626  0.1267224  )
        83        O      tau(  83) = (  0.6253951  0.6237699  0.3758955  )
        84        Zr     tau(  84) = (  0.5020704  0.5010073  0.4985177  )
        85        O      tau(  85) = (  0.6245276  0.6262360  0.6243096  )
        86        O      tau(  86) = (  0.8754330  0.8757557  0.8740957  )
        87        Zr     tau(  87) = (  0.4999419  0.7468378  0.7490006  )
        88        O      tau(  88) = (  0.6247536  0.8737827  0.8765926  )
        89        O      tau(  89) = (  0.8736047  0.6245707  0.6251276  )
        90        Zr     tau(  90) = (  0.7514061  0.4985992  0.7511348  )
        91        O      tau(  91) = (  0.8750100  0.6240424  0.8754508  )
        92        O      tau(  92) = (  0.6251942  0.8744144  0.6250681  )
        93        Zr     tau(  93) = (  0.7496241  0.7501107  0.5006460  )
        94        O      tau(  94) = (  0.8765473  0.8737924  0.6270810  )
        95        O      tau(  95) = (  0.6230955  0.6248519  0.8755740  )

     number of k points=     8  Gaussian smearing, width (Ry)=  0.0050
                       cart. coord. in units 2pi/alat
        k(    1) = (   0.0000000   0.0000000   0.0000000), wk =   0.2500000
        k(    2) = (   0.0000000   0.0000000  -0.5000000), wk =   0.2500000
        k(    3) = (   0.0000000  -0.5000000  -0.5000000), wk =   0.2500000
        k(    4) = (  -0.5000000  -0.5000000  -0.5000000), wk =   0.2500000
        k(    5) = (  -0.5000000   0.0000000   0.0000000), wk =   0.2500000
        k(    6) = (   0.0000000  -0.5000000   0.0000000), wk =   0.2500000
        k(    7) = (  -0.5000000   0.0000000   0.5000000), wk =   0.2500000
        k(    8) = (  -0.5000000   0.5000000   0.0000000), wk =   0.2500000

                       cryst. coord.
        k(    1) = (   0.0000000   0.0000000   0.0000000), wk =   0.2500000
        k(    2) = (   0.0000000   0.0000000  -0.5000000), wk =   0.2500000
        k(    3) = (   0.0000000  -0.5000000  -0.5000000), wk =   0.2500000
        k(    4) = (  -0.5000000  -0.5000000  -0.5000000), wk =   0.2500000
        k(    5) = (  -0.5000000   0.0000000   0.0000000), wk =   0.2500000
        k(    6) = (   0.0000000  -0.5000000   0.0000000), wk =   0.2500000
        k(    7) = (  -0.5000000   0.0000000   0.5000000), wk =   0.2500000
        k(    8) = (  -0.5000000   0.5000000   0.0000000), wk =   0.2500000

     Dense  grid:  1290383 G-vectors     FFT dimensions: ( 135, 135, 135)

     Smooth grid:   456055 G-vectors     FFT dimensions: (  96,  96,  96)

     Dynamical RAM for                 wfc:     395.11 MB

     Dynamical RAM for     wfc (w. buffer):    3555.98 MB

     Dynamical RAM for           str. fact:      78.76 MB

     Dynamical RAM for           local pot:       0.00 MB

     Dynamical RAM for          nlocal pot:     939.91 MB

     Dynamical RAM for                qrad:       7.03 MB

     Dynamical RAM for          rho,v,vnew:     115.38 MB

     Dynamical RAM for               rhoin:      38.46 MB

     Dynamical RAM for            rho*nmix:     315.03 MB

     Dynamical RAM for           G-vectors:      77.32 MB

     Dynamical RAM for          h,s,v(r/c):      37.74 MB

     Dynamical RAM for          <psi|beta>:       7.48 MB

     Dynamical RAM for                 psi:     790.22 MB

     Dynamical RAM for                hpsi:     790.22 MB

     Dynamical RAM for                spsi:     790.22 MB

     Dynamical RAM for      wfcinit/wfcrot:    1146.36 MB

     Dynamical RAM for           addusdens:    4902.73 MB

     Dynamical RAM for          addusforce:    7354.34 MB

     Estimated static dynamical RAM per process >       4.89 GB

     Estimated max dynamical RAM per process >      12.38 GB

     Check: negative core charge=   -0.000002

     Initial potential from superposition of free atoms

     starting charge     755.9271, renormalised to     756.0000
     Starting wfcs are  653 randomized atomic wfcs
     Checking if some PAW data can be deallocated... 

     total cpu time spent up to now is       25.5 secs

     Self-consistent Calculation
[tb_dev] Currently allocated     3.83E+01 Mbytes, locked:    0 /   6
[tb_pin] Currently allocated     0.00E+00 Mbytes, locked:    0 /   0

     iteration #  1     ecut=    60.00 Ry     beta= 0.30
     Davidson diagonalization with overlap

---- Real-time Memory Report at c_bands before calling an iterative solver
          5389 MiB given to the printing process from OS
             0 MiB allocation reported by mallinfo(arena+hblkhd)
         15300 MiB available memory on the node where the printing process lives
     GPU memory used/free/total (MiB): 9708 / 6435 / 16144
------------------
     ethr =  1.00E-02,  avg # of iterations =  2.0

     total cpu time spent up to now is       46.6 secs

     total energy              =  -11684.73161092 Ry
     estimated scf accuracy    <      37.98435879 Ry
[tb_dev] Currently allocated     7.25E-04 Mbytes, locked:    0 /   2
[tb_pin] Currently allocated     0.00E+00 Mbytes, locked:    0 /   0

     iteration #  2     ecut=    60.00 Ry     beta= 0.30
     Davidson diagonalization with overlap

---- Real-time Memory Report at c_bands before calling an iterative solver
          5504 MiB given to the printing process from OS
             0 MiB allocation reported by mallinfo(arena+hblkhd)
         15184 MiB available memory on the node where the printing process lives
     GPU memory used/free/total (MiB): 11466 / 4677 / 16144
------------------
     ethr =  5.02E-03,  avg # of iterations =  2.0

     total cpu time spent up to now is       68.5 secs

     total energy              =  -11687.45964286 Ry
     estimated scf accuracy    <       8.16943616 Ry
[tb_dev] Currently allocated     7.25E-04 Mbytes, locked:    0 /   2
[tb_pin] Currently allocated     0.00E+00 Mbytes, locked:    0 /   0

     iteration #  3     ecut=    60.00 Ry     beta= 0.30
     Davidson diagonalization with overlap

---- Real-time Memory Report at c_bands before calling an iterative solver
          5540 MiB given to the printing process from OS
             0 MiB allocation reported by mallinfo(arena+hblkhd)
         15143 MiB available memory on the node where the printing process lives
     GPU memory used/free/total (MiB): 11698 / 4445 / 16144
------------------
     ethr =  1.08E-03,  avg # of iterations =  5.5

     total cpu time spent up to now is       95.7 secs

     total energy              =  -11692.98917595 Ry
     estimated scf accuracy    <       8.45331684 Ry
[tb_dev] Currently allocated     7.25E-04 Mbytes, locked:    0 /   2
[tb_pin] Currently allocated     0.00E+00 Mbytes, locked:    0 /   0

     iteration #  4     ecut=    60.00 Ry     beta= 0.30
     Davidson diagonalization with overlap

---- Real-time Memory Report at c_bands before calling an iterative solver
          5567 MiB given to the printing process from OS
             0 MiB allocation reported by mallinfo(arena+hblkhd)
         15107 MiB available memory on the node where the printing process lives
     GPU memory used/free/total (MiB): 11946 / 4197 / 16144
------------------
     ethr =  1.08E-03,  avg # of iterations =  1.0

     total cpu time spent up to now is      115.6 secs

     total energy              =  -11693.14109307 Ry
     estimated scf accuracy    <       3.00728348 Ry
[tb_dev] Currently allocated     7.25E-04 Mbytes, locked:    0 /   2
[tb_pin] Currently allocated     0.00E+00 Mbytes, locked:    0 /   0

     iteration #  5     ecut=    60.00 Ry     beta= 0.30
     Davidson diagonalization with overlap

---- Real-time Memory Report at c_bands before calling an iterative solver
          5581 MiB given to the printing process from OS
             0 MiB allocation reported by mallinfo(arena+hblkhd)
         15092 MiB available memory on the node where the printing process lives
     GPU memory used/free/total (MiB): 11946 / 4197 / 16144
------------------
     ethr =  3.98E-04,  avg # of iterations =  2.0

     total cpu time spent up to now is      137.1 secs

     total energy              =  -11693.15334124 Ry
     estimated scf accuracy    <       1.56174316 Ry
[tb_dev] Currently allocated     7.25E-04 Mbytes, locked:    0 /   2
[tb_pin] Currently allocated     0.00E+00 Mbytes, locked:    0 /   0

     iteration #  6     ecut=    60.00 Ry     beta= 0.30
     Davidson diagonalization with overlap

---- Real-time Memory Report at c_bands before calling an iterative solver
          5623 MiB given to the printing process from OS
             0 MiB allocation reported by mallinfo(arena+hblkhd)
         15052 MiB available memory on the node where the printing process lives
     GPU memory used/free/total (MiB): 12054 / 4089 / 16144
------------------
     ethr =  2.07E-04,  avg # of iterations =  2.0

     total cpu time spent up to now is      158.1 secs

     total energy              =  -11693.02848190 Ry
     estimated scf accuracy    <       0.88887494 Ry
[tb_dev] Currently allocated     7.25E-04 Mbytes, locked:    0 /   2
[tb_pin] Currently allocated     0.00E+00 Mbytes, locked:    0 /   0

     iteration #  7     ecut=    60.00 Ry     beta= 0.30
     Davidson diagonalization with overlap

---- Real-time Memory Report at c_bands before calling an iterative solver
          5638 MiB given to the printing process from OS
             0 MiB allocation reported by mallinfo(arena+hblkhd)
         15040 MiB available memory on the node where the printing process lives
     GPU memory used/free/total (MiB): 12094 / 4049 / 16144
------------------
     c_bands:  1 eigenvalues not converged
     c_bands:  5 eigenvalues not converged
     c_bands:  5 eigenvalues not converged
     ethr =  1.18E-04,  avg # of iterations = 21.3

     total cpu time spent up to now is      189.0 secs

     total energy              =  -11693.21135196 Ry
     estimated scf accuracy    <       1.63481387 Ry
[tb_dev] Currently allocated     7.25E-04 Mbytes, locked:    0 /   2
[tb_pin] Currently allocated     0.00E+00 Mbytes, locked:    0 /   0

     iteration #  8     ecut=    60.00 Ry     beta= 0.30
     Davidson diagonalization with overlap

---- Real-time Memory Report at c_bands before calling an iterative solver
          5659 MiB given to the printing process from OS
             0 MiB allocation reported by mallinfo(arena+hblkhd)
         15017 MiB available memory on the node where the printing process lives
     GPU memory used/free/total (MiB): 12098 / 4045 / 16144
------------------
     ethr =  1.18E-04,  avg # of iterations =  2.0

     total cpu time spent up to now is      210.0 secs

     total energy              =  -11693.18731568 Ry
     estimated scf accuracy    <       0.59698516 Ry
[tb_dev] Currently allocated     7.25E-04 Mbytes, locked:    0 /   2
[tb_pin] Currently allocated     0.00E+00 Mbytes, locked:    0 /   0

     iteration #  9     ecut=    60.00 Ry     beta= 0.30
     Davidson diagonalization with overlap

---- Real-time Memory Report at c_bands before calling an iterative solver
          5680 MiB given to the printing process from OS
             0 MiB allocation reported by mallinfo(arena+hblkhd)
         15006 MiB available memory on the node where the printing process lives
     GPU memory used/free/total (MiB): 12100 / 4043 / 16144
------------------
     ethr =  7.90E-05,  avg # of iterations =  3.8

     total cpu time spent up to now is      231.3 secs

     total energy              =  -11693.25744819 Ry
     estimated scf accuracy    <       0.20766947 Ry
[tb_dev] Currently allocated     7.25E-04 Mbytes, locked:    0 /   2
[tb_pin] Currently allocated     0.00E+00 Mbytes, locked:    0 /   0

     iteration # 10     ecut=    60.00 Ry     beta= 0.30
     Davidson diagonalization with overlap

---- Real-time Memory Report at c_bands before calling an iterative solver
          5701 MiB given to the printing process from OS
             0 MiB allocation reported by mallinfo(arena+hblkhd)
         14982 MiB available memory on the node where the printing process lives
     GPU memory used/free/total (MiB): 12100 / 4043 / 16144
------------------
     c_bands:  2 eigenvalues not converged
     c_bands:  4 eigenvalues not converged
     c_bands:  3 eigenvalues not converged
     ethr =  2.75E-05,  avg # of iterations = 14.8

     total cpu time spent up to now is      257.8 secs

     total energy              =  -11693.27810797 Ry
     estimated scf accuracy    <       0.23132649 Ry
[tb_dev] Currently allocated     7.25E-04 Mbytes, locked:    0 /   2
[tb_pin] Currently allocated     0.00E+00 Mbytes, locked:    0 /   0

     iteration # 11     ecut=    60.00 Ry     beta= 0.30
     Davidson diagonalization with overlap

---- Real-time Memory Report at c_bands before calling an iterative solver
          5722 MiB given to the printing process from OS
             0 MiB allocation reported by mallinfo(arena+hblkhd)
         14977 MiB available memory on the node where the printing process lives
     GPU memory used/free/total (MiB): 12100 / 4043 / 16144
------------------
     ethr =  2.75E-05,  avg # of iterations =  2.0

     total cpu time spent up to now is      279.1 secs

     total energy              =  -11693.24127778 Ry
     estimated scf accuracy    <       0.11983484 Ry
[tb_dev] Currently allocated     7.25E-04 Mbytes, locked:    0 /   2
[tb_pin] Currently allocated     0.00E+00 Mbytes, locked:    0 /   0

     iteration # 12     ecut=    60.00 Ry     beta= 0.30
     Davidson diagonalization with overlap

---- Real-time Memory Report at c_bands before calling an iterative solver
          5722 MiB given to the printing process from OS
             0 MiB allocation reported by mallinfo(arena+hblkhd)
         14978 MiB available memory on the node where the printing process lives
     GPU memory used/free/total (MiB): 12100 / 4043 / 16144
------------------
     c_bands:  1 eigenvalues not converged
     c_bands:  2 eigenvalues not converged
     c_bands:  1 eigenvalues not converged
     c_bands:  3 eigenvalues not converged
     c_bands:  5 eigenvalues not converged
     ethr =  1.59E-05,  avg # of iterations = 20.1

     total cpu time spent up to now is      305.8 secs

     total energy              =  -11693.25106201 Ry
     estimated scf accuracy    <       0.08604002 Ry
[tb_dev] Currently allocated     7.25E-04 Mbytes, locked:    0 /   2
[tb_pin] Currently allocated     0.00E+00 Mbytes, locked:    0 /   0

     iteration # 13     ecut=    60.00 Ry     beta= 0.30
     Davidson diagonalization with overlap

---- Real-time Memory Report at c_bands before calling an iterative solver
          5722 MiB given to the printing process from OS
             0 MiB allocation reported by mallinfo(arena+hblkhd)
         14971 MiB available memory on the node where the printing process lives
     GPU memory used/free/total (MiB): 12100 / 4043 / 16144
------------------
     c_bands:  3 eigenvalues not converged
     ethr =  1.14E-05,  avg # of iterations =  8.3

     total cpu time spent up to now is      329.5 secs

     total energy              =  -11693.26211030 Ry
     estimated scf accuracy    <       0.04309133 Ry
[tb_dev] Currently allocated     7.25E-04 Mbytes, locked:    0 /   2
[tb_pin] Currently allocated     0.00E+00 Mbytes, locked:    0 /   0

     iteration # 14     ecut=    60.00 Ry     beta= 0.30
     Davidson diagonalization with overlap

---- Real-time Memory Report at c_bands before calling an iterative solver
          5722 MiB given to the printing process from OS
             0 MiB allocation reported by mallinfo(arena+hblkhd)
         14972 MiB available memory on the node where the printing process lives
     GPU memory used/free/total (MiB): 12100 / 4043 / 16144
------------------
     c_bands:  3 eigenvalues not converged
     c_bands:  3 eigenvalues not converged
     c_bands:  5 eigenvalues not converged
     c_bands:  3 eigenvalues not converged
     c_bands:  4 eigenvalues not converged
     ethr =  5.70E-06,  avg # of iterations = 27.5

     total cpu time spent up to now is      359.3 secs

     total energy              =  -11693.26557604 Ry
     estimated scf accuracy    <       0.01382855 Ry
[tb_dev] Currently allocated     7.25E-04 Mbytes, locked:    0 /   2
[tb_pin] Currently allocated     0.00E+00 Mbytes, locked:    0 /   0

     iteration # 15     ecut=    60.00 Ry     beta= 0.30
     Davidson diagonalization with overlap

---- Real-time Memory Report at c_bands before calling an iterative solver
          5722 MiB given to the printing process from OS
             0 MiB allocation reported by mallinfo(arena+hblkhd)
         14972 MiB available memory on the node where the printing process lives
     GPU memory used/free/total (MiB): 12100 / 4043 / 16144
------------------
     c_bands:  5 eigenvalues not converged
     c_bands:  5 eigenvalues not converged
     c_bands:  4 eigenvalues not converged
     c_bands:  5 eigenvalues not converged
     c_bands:  3 eigenvalues not converged
     c_bands:  4 eigenvalues not converged
     c_bands:  1 eigenvalues not converged
     ethr =  1.83E-06,  avg # of iterations = 32.8

     total cpu time spent up to now is      393.1 secs

     total energy              =  -11693.26646136 Ry
     estimated scf accuracy    <       0.00625812 Ry
[tb_dev] Currently allocated     7.25E-04 Mbytes, locked:    0 /   2
[tb_pin] Currently allocated     0.00E+00 Mbytes, locked:    0 /   0

     iteration # 16     ecut=    60.00 Ry     beta= 0.30
     Davidson diagonalization with overlap

---- Real-time Memory Report at c_bands before calling an iterative solver
          5722 MiB given to the printing process from OS
             0 MiB allocation reported by mallinfo(arena+hblkhd)
         14973 MiB available memory on the node where the printing process lives
     GPU memory used/free/total (MiB): 12100 / 4043 / 16144
------------------
     c_bands:  3 eigenvalues not converged
     c_bands:  1 eigenvalues not converged
     ethr =  8.28E-07,  avg # of iterations =  6.5

     total cpu time spent up to now is      415.2 secs

     total energy              =  -11693.26625468 Ry
     estimated scf accuracy    <       0.00185259 Ry
[tb_dev] Currently allocated     7.25E-04 Mbytes, locked:    0 /   2
[tb_pin] Currently allocated     0.00E+00 Mbytes, locked:    0 /   0

     iteration # 17     ecut=    60.00 Ry     beta= 0.30
     Davidson diagonalization with overlap

---- Real-time Memory Report at c_bands before calling an iterative solver
          5722 MiB given to the printing process from OS
             0 MiB allocation reported by mallinfo(arena+hblkhd)
         14972 MiB available memory on the node where the printing process lives
     GPU memory used/free/total (MiB): 12100 / 4043 / 16144
------------------
     c_bands:  4 eigenvalues not converged
     c_bands:  1 eigenvalues not converged
     ethr =  2.45E-07,  avg # of iterations = 11.3

     total cpu time spent up to now is      443.3 secs

     total energy              =  -11693.26712017 Ry
     estimated scf accuracy    <       0.00678044 Ry
[tb_dev] Currently allocated     7.25E-04 Mbytes, locked:    0 /   2
[tb_pin] Currently allocated     0.00E+00 Mbytes, locked:    0 /   0

     iteration # 18     ecut=    60.00 Ry     beta= 0.30
     Davidson diagonalization with overlap

---- Real-time Memory Report at c_bands before calling an iterative solver
          5722 MiB given to the printing process from OS
             0 MiB allocation reported by mallinfo(arena+hblkhd)
         14971 MiB available memory on the node where the printing process lives
     GPU memory used/free/total (MiB): 12140 / 4003 / 16144
------------------
     c_bands:  2 eigenvalues not converged
     c_bands:  1 eigenvalues not converged
     ethr =  2.45E-07,  avg # of iterations =  6.5

     total cpu time spent up to now is      464.9 secs

     total energy              =  -11693.26730290 Ry
     estimated scf accuracy    <       0.00077967 Ry
[tb_dev] Currently allocated     7.25E-04 Mbytes, locked:    0 /   2
[tb_pin] Currently allocated     0.00E+00 Mbytes, locked:    0 /   0

     iteration # 19     ecut=    60.00 Ry     beta= 0.30
     Davidson diagonalization with overlap

---- Real-time Memory Report at c_bands before calling an iterative solver
          5722 MiB given to the printing process from OS
             0 MiB allocation reported by mallinfo(arena+hblkhd)
         14969 MiB available memory on the node where the printing process lives
     GPU memory used/free/total (MiB): 12140 / 4003 / 16144
------------------
     c_bands:  2 eigenvalues not converged
     ethr =  1.03E-07,  avg # of iterations =  6.8

     total cpu time spent up to now is      487.8 secs

     total energy              =  -11693.26731027 Ry
     estimated scf accuracy    <       0.00044030 Ry
[tb_dev] Currently allocated     7.25E-04 Mbytes, locked:    0 /   2
[tb_pin] Currently allocated     0.00E+00 Mbytes, locked:    0 /   0

     iteration # 20     ecut=    60.00 Ry     beta= 0.30
     Davidson diagonalization with overlap

---- Real-time Memory Report at c_bands before calling an iterative solver
          5722 MiB given to the printing process from OS
             0 MiB allocation reported by mallinfo(arena+hblkhd)
         14968 MiB available memory on the node where the printing process lives
     GPU memory used/free/total (MiB): 12140 / 4003 / 16144
------------------
     ethr =  5.82E-08,  avg # of iterations =  8.1

     total cpu time spent up to now is      511.7 secs

     total energy              =  -11693.26741989 Ry
     estimated scf accuracy    <       0.00007866 Ry
[tb_dev] Currently allocated     7.25E-04 Mbytes, locked:    0 /   2
[tb_pin] Currently allocated     0.00E+00 Mbytes, locked:    0 /   0

     iteration # 21     ecut=    60.00 Ry     beta= 0.30
     Davidson diagonalization with overlap

---- Real-time Memory Report at c_bands before calling an iterative solver
          5722 MiB given to the printing process from OS
             0 MiB allocation reported by mallinfo(arena+hblkhd)
         14970 MiB available memory on the node where the printing process lives
     GPU memory used/free/total (MiB): 12140 / 4003 / 16144
------------------
     ethr =  1.04E-08,  avg # of iterations =  8.8

     total cpu time spent up to now is      539.8 secs

     total energy              =  -11693.26746340 Ry
     estimated scf accuracy    <       0.00018927 Ry
[tb_dev] Currently allocated     7.25E-04 Mbytes, locked:    0 /   2
[tb_pin] Currently allocated     0.00E+00 Mbytes, locked:    0 /   0

     iteration # 22     ecut=    60.00 Ry     beta= 0.30
     Davidson diagonalization with overlap

---- Real-time Memory Report at c_bands before calling an iterative solver
          5722 MiB given to the printing process from OS
             0 MiB allocation reported by mallinfo(arena+hblkhd)
         14967 MiB available memory on the node where the printing process lives
     GPU memory used/free/total (MiB): 12140 / 4003 / 16144
------------------
     ethr =  1.04E-08,  avg # of iterations =  1.6

     total cpu time spent up to now is      560.2 secs

     total energy              =  -11693.26745663 Ry
     estimated scf accuracy    <       0.00010060 Ry
[tb_dev] Currently allocated     7.25E-04 Mbytes, locked:    0 /   2
[tb_pin] Currently allocated     0.00E+00 Mbytes, locked:    0 /   0

     iteration # 23     ecut=    60.00 Ry     beta= 0.30
     Davidson diagonalization with overlap

---- Real-time Memory Report at c_bands before calling an iterative solver
          5722 MiB given to the printing process from OS
             0 MiB allocation reported by mallinfo(arena+hblkhd)
         14968 MiB available memory on the node where the printing process lives
     GPU memory used/free/total (MiB): 12140 / 4003 / 16144
------------------
     ethr =  1.04E-08,  avg # of iterations =  1.8

     total cpu time spent up to now is      581.2 secs

     total energy              =  -11693.26743215 Ry
     estimated scf accuracy    <       0.00006658 Ry
[tb_dev] Currently allocated     7.25E-04 Mbytes, locked:    0 /   2
[tb_pin] Currently allocated     0.00E+00 Mbytes, locked:    0 /   0

     iteration # 24     ecut=    60.00 Ry     beta= 0.30
     Davidson diagonalization with overlap

---- Real-time Memory Report at c_bands before calling an iterative solver
          5722 MiB given to the printing process from OS
             0 MiB allocation reported by mallinfo(arena+hblkhd)
         14965 MiB available memory on the node where the printing process lives
     GPU memory used/free/total (MiB): 12140 / 4003 / 16144
------------------
     ethr =  8.81E-09,  avg # of iterations =  5.9

     total cpu time spent up to now is      604.9 secs

     total energy              =  -11693.26744826 Ry
     estimated scf accuracy    <       0.00000453 Ry
[tb_dev] Currently allocated     7.25E-04 Mbytes, locked:    0 /   2
[tb_pin] Currently allocated     0.00E+00 Mbytes, locked:    0 /   0

     iteration # 25     ecut=    60.00 Ry     beta= 0.30
     Davidson diagonalization with overlap

---- Real-time Memory Report at c_bands before calling an iterative solver
          5723 MiB given to the printing process from OS
             0 MiB allocation reported by mallinfo(arena+hblkhd)
         14966 MiB available memory on the node where the printing process lives
     GPU memory used/free/total (MiB): 12140 / 4003 / 16144
------------------
     c_bands:  3 eigenvalues not converged
     c_bands:  1 eigenvalues not converged
     ethr =  5.99E-10,  avg # of iterations = 14.3

     total cpu time spent up to now is      637.2 secs

     total energy              =  -11693.26745491 Ry
     estimated scf accuracy    <       0.00001239 Ry
[tb_dev] Currently allocated     7.25E-04 Mbytes, locked:    0 /   2
[tb_pin] Currently allocated     0.00E+00 Mbytes, locked:    0 /   0

     iteration # 26     ecut=    60.00 Ry     beta= 0.30
     Davidson diagonalization with overlap

---- Real-time Memory Report at c_bands before calling an iterative solver
          5723 MiB given to the printing process from OS
             0 MiB allocation reported by mallinfo(arena+hblkhd)
         14965 MiB available memory on the node where the printing process lives
     GPU memory used/free/total (MiB): 12140 / 4003 / 16144
------------------
     ethr =  5.99E-10,  avg # of iterations =  2.0

     total cpu time spent up to now is      658.5 secs

     total energy              =  -11693.26745414 Ry
     estimated scf accuracy    <       0.00000500 Ry
[tb_dev] Currently allocated     7.25E-04 Mbytes, locked:    0 /   2
[tb_pin] Currently allocated     0.00E+00 Mbytes, locked:    0 /   0

     iteration # 27     ecut=    60.00 Ry     beta= 0.30
     Davidson diagonalization with overlap

---- Real-time Memory Report at c_bands before calling an iterative solver
          5723 MiB given to the printing process from OS
             0 MiB allocation reported by mallinfo(arena+hblkhd)
         14965 MiB available memory on the node where the printing process lives
     GPU memory used/free/total (MiB): 12140 / 4003 / 16144
------------------
     ethr =  5.99E-10,  avg # of iterations =  2.8

     total cpu time spent up to now is      680.9 secs

     total energy              =  -11693.26745453 Ry
     estimated scf accuracy    <       0.00000128 Ry
[tb_dev] Currently allocated     7.25E-04 Mbytes, locked:    0 /   2
[tb_pin] Currently allocated     0.00E+00 Mbytes, locked:    0 /   0

     iteration # 28     ecut=    60.00 Ry     beta= 0.30
     Davidson diagonalization with overlap

---- Real-time Memory Report at c_bands before calling an iterative solver
          5723 MiB given to the printing process from OS
             0 MiB allocation reported by mallinfo(arena+hblkhd)
         14965 MiB available memory on the node where the printing process lives
     GPU memory used/free/total (MiB): 12140 / 4003 / 16144
------------------
     ethr =  1.70E-10,  avg # of iterations =  7.6

     total cpu time spent up to now is      706.6 secs

     End of self-consistent calculation

          k = 0.0000 0.0000 0.0000 ( 57243 PWs)   bands (ev):

   -37.6925 -37.6396 -37.5064 -37.2416 -37.2057 -37.1138 -37.0523 -36.9744
   -36.9640 -36.9501 -36.9344 -36.9123 -36.9063 -36.9022 -36.8738 -36.8622
   -36.8264 -36.8118 -36.8089 -36.8044 -36.7997 -36.7948 -36.7479 -36.6861
   -36.6620 -36.6239 -36.4252 -36.3623 -36.3546 -36.3268 -36.2221 -27.2478
   -15.9259 -15.8414 -15.8203 -15.8019 -15.7587 -15.6898 -15.6859 -15.6275
   -15.5789 -15.4720 -15.4343 -15.4243 -15.4163 -15.3787 -15.3595 -15.3522
   -15.3181 -15.3084 -15.2886 -15.2595 -15.2440 -15.2348 -15.2202 -15.2065
   -15.1935 -15.1842 -15.1687 -15.1569 -15.1406 -15.1378 -15.1296 -15.1234
   -15.1179 -15.1063 -15.1020 -15.0994 -15.0901 -15.0886 -15.0865 -15.0727
   -15.0638 -15.0543 -15.0419 -15.0372 -15.0290 -15.0197 -15.0163 -15.0104
   -15.0023 -14.9939 -14.9830 -14.9739 -14.9704 -14.9681 -14.9530 -14.9463
   -14.9340 -14.9312 -14.9225 -14.9135 -14.9097 -14.9067 -14.8941 -14.8878
   -14.8693 -14.8673 -14.8625 -14.8575 -14.8516 -14.8474 -14.8369 -14.8334
   -14.8299 -14.8251 -14.8138 -14.8133 -14.8048 -14.8001 -14.7941 -14.7898
   -14.7876 -14.7737 -14.7661 -14.7638 -14.7400 -14.7331 -14.7114 -14.6988
   -14.6788 -14.6700 -14.6686 -14.6387 -14.6250  -8.2233  -8.2226  -8.2167
    -6.8847  -6.3047  -6.2185  -6.2045  -6.1522  -5.9907  -5.9546  -5.9466
    -5.9128  -5.8818  -5.8357  -5.7946  -5.7384  -5.7167  -5.6550  -5.6398
    -5.5984  -5.5739  -5.5219  -5.4945  -5.4804  -5.4484  -5.4166  -5.3850
    -5.3726  -5.3422  -5.3172  -5.2885  -5.2808  -5.2593  -5.2582  -5.2324
    -5.1970  -5.1876  -5.1589  -5.1328  -5.0957  -5.0654  -5.0557  -5.0264
    -4.9725  -4.9588  -4.9335  -4.9050  -4.8855  -4.8477  -4.8448  -4.8274
    -4.7954  -4.7513  -4.7218  -4.6995  -4.6961  -4.6694  -4.6376  -4.5956
    -4.5543  -4.5276  -4.4352  -4.1438  -4.0296  -3.9920  -3.9668   5.5052
     5.5211   5.5469   6.1264   6.1813   6.1857   6.3761   6.4054   6.4280
     6.4385   6.5132   6.5255   6.5357   6.5538   6.5765   6.5942   6.6029
     6.6243   6.6788   6.6970   6.7110   6.7300   6.7449   6.7513   6.7638
     6.7901   6.8298   6.8478   6.8737   6.8801   6.9232   6.9303   6.9490
     6.9531   6.9649   6.9969   7.0224   7.0726   7.1283   7.1419   7.1582
     7.1757   7.2256   7.2413   7.2837   7.3186   7.3459   7.3716   7.3770
     7.4101   7.4396   7.6111   7.6659   7.6724   7.6998   7.7153   7.7497
     7.7781   7.7853   7.8461   7.8715   7.8868   7.9349   7.9669   7.9999
     8.0026   8.0342   8.0623   8.0929   8.1042   8.1327   8.1715   8.1736
     8.1859   8.2023   8.2305   8.2447   8.2694   8.2723   8.2899   8.3038
     8.3327   8.3504   8.3695   8.4055   8.4206   8.4471   8.4923   8.5118
     8.5630   8.6081   8.6403   8.6621   8.7076   8.7205   8.7338   8.7644
     8.7732   8.7971   8.8172   8.8214   8.8387   8.8498   8.8676   8.8773
     8.8934   8.9204   8.9366   8.9412   8.9599   9.0043   9.0269   9.0373
     9.0433   9.0783   9.0816   9.1020   9.1281   9.1462   9.1555   9.1763
     9.2025   9.2788   9.2842   9.3280   9.3844   9.4084   9.4229   9.4590
     9.4888   9.5141   9.5462   9.5599   9.5865   9.6204   9.6348   9.6748
     9.6877   9.7090   9.7228   9.7387   9.7831   9.7901   9.8102   9.8276
     9.8624   9.9432   9.9555  10.0056  10.0880  10.1397  10.2269  10.2542
    10.2785  10.3645  10.4473  10.4956  10.5298  10.5721  10.5761  10.6351
    10.6625  10.6690  10.7036  10.7445  10.7731  10.7808  10.8289  10.8442
    10.8570  10.8674  10.9051  10.9264  10.9638  10.9999  11.0120  11.0392
    11.0655  11.0725  11.0934  11.1426  11.1736  11.2013  11.2228  11.2516
    11.2648  11.4934  11.5427  11.5782  12.0063  14.0878  14.1613  14.2301
    14.4420  14.5092  14.6788  14.7686  14.8307  14.8604  14.9038  14.9524
    14.9752  15.0102  15.0330  15.0588  15.0749  15.0942  15.1252  15.1496
    15.1816  15.1959  15.2094  15.2149  15.2446  15.2497  15.2848  15.3090
    15.3232  15.3532  15.3878  15.3987  15.4241  15.4483  15.4933  15.5293
    15.5594  15.5851  15.6161  15.6292  15.6510  15.6822  15.6940  15.7032
    15.7301  15.7364  15.7861  15.8063  15.8403  15.8619  15.8850  15.9117
    15.9549  16.0524  16.1224  16.1538  16.1840  16.2210  16.2549  16.2607
    16.3011  16.3372  16.3969  16.4593  16.5531  16.6619  16.7802  16.8206
    16.9740  17.0373  17.0584  17.0773  17.2235  17.2946

     occupation numbers 
     1.0000   1.0000   1.0000   1.0000   1.0000   1.0000   1.0000   1.0000
     1.0000   1.0000   1.0000   1.0000   1.0000   1.0000   1.0000   1.0000
     1.0000   1.0000   1.0000   1.0000   1.0000   1.0000   1.0000   1.0000
     1.0000   1.0000   1.0000   1.0000   1.0000   1.0000   1.0000   1.0000
     1.0000   1.0000   1.0000   1.0000   1.0000   1.0000   1.0000   1.0000
     1.0000   1.0000   1.0000   1.0000   1.0000   1.0000   1.0000   1.0000
     1.0000   1.0000   1.0000   1.0000   1.0000   1.0000   1.0000   1.0000
     1.0000   1.0000   1.0000   1.0000   1.0000   1.0000   1.0000   1.0000
     1.0000   1.0000   1.0000   1.0000   1.0000   1.0000   1.0000   1.0000
     1.0000   1.0000   1.0000   1.0000   1.0000   1.0000   1.0000   1.0000
     1.0000   1.0000   1.0000   1.0000   1.0000   1.0000   1.0000   1.0000
     1.0000   1.0000   1.0000   1.0000   1.0000   1.0000   1.0000   1.0000
     1.0000   1.0000   1.0000   1.0000   1.0000   1.0000   1.0000   1.0000
     1.0000   1.0000   1.0000   1.0000   1.0000   1.0000   1.0000   1.0000
     1.0000   1.0000   1.0000   1.0000   1.0000   1.0000   1.0000   1.0000
     1.0000   1.0000   1.0000   1.0000   1.0000   1.0000   1.0000   1.0000
     1.0000   1.0000   1.0000   1.0000   1.0000   1.0000   1.0000   1.0000
     1.0000   1.0000   1.0000   1.0000   1.0000   1.0000   1.0000   1.0000
     1.0000   1.0000   1.0000   1.0000   1.0000   1.0000   1.0000   1.0000
     1.0000   1.0000   1.0000   1.0000   1.0000   1.0000   1.0000   1.0000
     1.0000   1.0000   1.0000   1.0000   1.0000   1.0000   1.0000   1.0000
     1.0000   1.0000   1.0000   1.0000   1.0000   1.0000   1.0000   1.0000
     1.0000   1.0000   1.0000   1.0000   1.0000   1.0000   1.0000   1.0000
     1.0000   1.0000   1.0000   1.0000   1.0000   1.0000   1.0000   1.0000
     1.0000   1.0000   1.0000   1.0000   1.0000   1.0000   1.0000   1.0000
     1.0000   1.0000   1.0000   1.0000   1.0000   1.0000   1.0000   1.0000
     1.0000   1.0000   1.0000   1.0000   1.0000   1.0000   1.0000   1.0000
     1.0000   1.0000   1.0000   1.0000   1.0000   1.0000   1.0000   1.0000
     1.0000   1.0000   1.0000   1.0000   1.0000   1.0000   1.0000   1.0000
     1.0000   1.0000   1.0000   1.0000   1.0000   1.0000   1.0000   1.0000
     1.0000   1.0000   1.0000   1.0000   1.0000   1.0000   1.0000   1.0000
     1.0000   1.0000   1.0000   1.0000   1.0000   1.0000   1.0000   1.0000
     1.0000   1.0000   1.0000   1.0000   1.0000   1.0000   1.0000   1.0000
     1.0000   1.0000   1.0000   1.0000   1.0000   1.0000   1.0000   1.0000
     1.0000   1.0000   1.0000   1.0000   1.0000   1.0000   1.0000   1.0000
     1.0000   1.0000   1.0000   1.0000   1.0000   1.0000   1.0000   1.0000
     1.0000   1.0000   1.0000   1.0000   1.0000   1.0000   1.0000   1.0000
     1.0000   1.0000   1.0000   1.0000   1.0000   1.0000   1.0000   1.0000
     1.0000   1.0000   1.0000   1.0000   1.0000   1.0000   1.0000   1.0000
     1.0000   1.0000   1.0000   1.0000   1.0000   1.0000   1.0000   1.0000
     1.0000   1.0000   1.0000   1.0000   1.0000   1.0000   1.0000   1.0000
     1.0000   1.0000   1.0000   1.0000   1.0000   1.0000   1.0000   1.0000
     1.0000   1.0000   1.0000   1.0000   1.0000   1.0000   1.0000   1.0000
     1.0000   1.0000   1.0000   1.0000   1.0000   1.0000   1.0000   1.0000
     1.0000   1.0000   1.0000   1.0000   1.0000   1.0000   1.0000   1.0000
     1.0000   1.0000   1.0000   1.0000   1.0000   1.0000   1.0000   1.0000
     1.0000   1.0000   0.9999   0.9962   0.9786   0.9263   0.8417   0.6567
     0.5512   0.0000   0.0000   0.0000   0.0000   0.0000   0.0000   0.0000
     0.0000   0.0000   0.0000   0.0000   0.0000   0.0000   0.0000   0.0000
     0.0000   0.0000   0.0000   0.0000   0.0000   0.0000   0.0000   0.0000
     0.0000   0.0000   0.0000   0.0000   0.0000   0.0000   0.0000   0.0000
     0.0000   0.0000   0.0000   0.0000   0.0000   0.0000   0.0000   0.0000
     0.0000   0.0000   0.0000   0.0000   0.0000   0.0000   0.0000   0.0000
     0.0000   0.0000   0.0000   0.0000   0.0000   0.0000   0.0000   0.0000
     0.0000   0.0000   0.0000   0.0000   0.0000   0.0000   0.0000   0.0000
     0.0000   0.0000   0.0000   0.0000   0.0000   0.0000   0.0000   0.0000
     0.0000   0.0000   0.0000   0.0000   0.0000   0.0000

          k = 0.0000 0.0000-0.5000 ( 56960 PWs)   bands (ev):

   -37.6925 -37.6396 -37.5064 -37.2416 -37.2057 -37.1138 -37.0523 -36.9744
   -36.9640 -36.9500 -36.9345 -36.9124 -36.9058 -36.9025 -36.8738 -36.8622
   -36.8264 -36.8123 -36.8093 -36.8022 -36.8011 -36.7948 -36.7479 -36.6861
   -36.6620 -36.6239 -36.4252 -36.3623 -36.3545 -36.3268 -36.2221 -27.2478
   -15.9241 -15.8410 -15.8179 -15.7987 -15.7564 -15.6909 -15.6856 -15.6289
   -15.5797 -15.4599 -15.4498 -15.4318 -15.4192 -15.3806 -15.3647 -15.3483
   -15.3137 -15.3115 -15.2955 -15.2795 -15.2487 -15.2156 -15.2132 -15.1962
   -15.1816 -15.1770 -15.1715 -15.1696 -15.1551 -15.1508 -15.1416 -15.1313
   -15.1276 -15.1195 -15.1120 -15.1040 -15.0945 -15.0892 -15.0812 -15.0721
   -15.0666 -15.0575 -15.0523 -15.0438 -15.0241 -15.0129 -15.0110 -15.0032
   -14.9836 -14.9752 -14.9632 -14.9568 -14.9490 -14.9457 -14.9394 -14.9316
   -14.9276 -14.9204 -14.9177 -14.9133 -14.9062 -14.9032 -14.8925 -14.8820
   -14.8805 -14.8731 -14.8688 -14.8595 -14.8571 -14.8478 -14.8444 -14.8385
   -14.8342 -14.8252 -14.8196 -14.8109 -14.8056 -14.8006 -14.7965 -14.7931
   -14.7890 -14.7771 -14.7674 -14.7651 -14.7468 -14.7345 -14.7115 -14.7012
   -14.6841 -14.6734 -14.6707 -14.6427 -14.6315  -8.2253  -8.2228  -8.2171
    -6.6843  -6.6141  -6.2011  -6.1828  -6.1406  -6.0549  -5.9464  -5.9071
    -5.8730  -5.8439  -5.8203  -5.8100  -5.7353  -5.7214  -5.6988  -5.6589
    -5.5814  -5.5598  -5.5391  -5.5200  -5.4997  -5.4596  -5.4486  -5.4047
    -5.3738  -5.3473  -5.3370  -5.2815  -5.2687  -5.2426  -5.2177  -5.2020
    -5.1858  -5.1667  -5.1313  -5.0841  -5.0715  -5.0508  -5.0333  -5.0012
    -4.9750  -4.9671  -4.9459  -4.9024  -4.8921  -4.8618  -4.8385  -4.8124
    -4.8098  -4.7635  -4.7314  -4.7089  -4.6941  -4.6762  -4.6485  -4.6273
    -4.5995  -4.4447  -4.3703  -4.2227  -4.0438  -4.0047  -3.9714   5.7388
     5.7652   5.8996   5.9199   5.9370   6.1125   6.2368   6.2763   6.3634
     6.4358   6.4510   6.5185   6.5552   6.5664   6.6014   6.6088   6.6258
     6.6643   6.6830   6.7080   6.7135   6.7375   6.7577   6.7788   6.7952
     6.8134   6.8440   6.8558   6.8658   6.9319   6.9417   6.9720   6.9922
     7.0104   7.0193   7.0671   7.0914   7.1160   7.1405   7.1584   7.2101
     7.2215   7.2392   7.2923   7.3200   7.3224   7.3648   7.3717   7.3975
     7.4238   7.4519   7.4640   7.4821   7.5276   7.5737   7.5847   7.6033
     7.6230   7.6576   7.6709   7.6916   7.7296   7.7431   7.7794   7.8037
     7.8385   7.8544   7.8861   7.9097   7.9459   7.9588   7.9930   8.0352
     8.1182   8.1666   8.2465   8.2849   8.3186   8.3533   8.3665   8.4017
     8.4315   8.4411   8.4490   8.4710   8.4872   8.5066   8.5251   8.5516
     8.5774   8.5825   8.6036   8.6208   8.6408   8.6584   8.6729   8.6854
     8.7332   8.7446   8.7770   8.7970   8.8387   8.8617   8.8777   8.8979
     8.9051   8.9107   8.9417   8.9820   9.0375   9.0877   9.1049   9.1525
     9.1736   9.2262   9.2440   9.2642   9.2768   9.3015   9.3090   9.3160
     9.3439   9.3579   9.3849   9.3928   9.4329   9.4591   9.4856   9.5450
     9.5585   9.5997   9.6628   9.6963   9.7736   9.7830   9.8447   9.9005
     9.9233   9.9591   9.9685  10.0214  10.0283  10.0505  10.0951  10.1113
    10.1284  10.1487  10.1650  10.2105  10.2338  10.2651  10.2854  10.2867
    10.3235  10.3362  10.3674  10.4020  10.4364  10.4641  10.4701  10.4945
    10.5000  10.5259  10.5452  10.5769  10.6202  10.6293  10.6726  10.6793
    10.6974  10.7059  10.7169  10.7300  10.7488  10.7718  10.8114  10.8382
    10.8480  10.8853  10.9403  10.9735  11.0039  11.0387  11.1571  11.1913
    11.2143  11.3497  11.3934  11.4551  12.1172  14.0504  14.1557  14.2083
    14.5471  14.6375  14.7004  14.7855  14.9127  14.9404  14.9647  15.0180
    15.0389  15.0517  15.1117  15.1244  15.1361  15.1462  15.1684  15.2103
    15.2115  15.2290  15.2324  15.2388  15.2869  15.2995  15.3103  15.3324
    15.3511  15.3893  15.4042  15.4117  15.4353  15.4775  15.4908  15.5240
    15.5332  15.5553  15.5615  15.5955  15.6021  15.6427  15.6666  15.6831
    15.6921  15.6948  15.7221  15.7363  15.7453  15.7861  15.8228  15.8832
    15.9243  16.0950  16.1201  16.1252  16.1425  16.1740  16.2022  16.2151
    16.2492  16.3264  16.3425  16.4186  16.5081  16.6238  16.8891  16.9601
    17.0057  17.0291  17.0709  17.1076  17.1332  17.2223

     occupation numbers 
     1.0000   1.0000   1.0000   1.0000   1.0000   1.0000   1.0000   1.0000
     1.0000   1.0000   1.0000   1.0000   1.0000   1.0000   1.0000   1.0000
     1.0000   1.0000   1.0000   1.0000   1.0000   1.0000   1.0000   1.0000
     1.0000   1.0000   1.0000   1.0000   1.0000   1.0000   1.0000   1.0000
     1.0000   1.0000   1.0000   1.0000   1.0000   1.0000   1.0000   1.0000
     1.0000   1.0000   1.0000   1.0000   1.0000   1.0000   1.0000   1.0000
     1.0000   1.0000   1.0000   1.0000   1.0000   1.0000   1.0000   1.0000
     1.0000   1.0000   1.0000   1.0000   1.0000   1.0000   1.0000   1.0000
     1.0000   1.0000   1.0000   1.0000   1.0000   1.0000   1.0000   1.0000
     1.0000   1.0000   1.0000   1.0000   1.0000   1.0000   1.0000   1.0000
     1.0000   1.0000   1.0000   1.0000   1.0000   1.0000   1.0000   1.0000
     1.0000   1.0000   1.0000   1.0000   1.0000   1.0000   1.0000   1.0000
     1.0000   1.0000   1.0000   1.0000   1.0000   1.0000   1.0000   1.0000
     1.0000   1.0000   1.0000   1.0000   1.0000   1.0000   1.0000   1.0000
     1.0000   1.0000   1.0000   1.0000   1.0000   1.0000   1.0000   1.0000
     1.0000   1.0000   1.0000   1.0000   1.0000   1.0000   1.0000   1.0000
     1.0000   1.0000   1.0000   1.0000   1.0000   1.0000   1.0000   1.0000
     1.0000   1.0000   1.0000   1.0000   1.0000   1.0000   1.0000   1.0000
     1.0000   1.0000   1.0000   1.0000   1.0000   1.0000   1.0000   1.0000
     1.0000   1.0000   1.0000   1.0000   1.0000   1.0000   1.0000   1.0000
     1.0000   1.0000   1.0000   1.0000   1.0000   1.0000   1.0000   1.0000
     1.0000   1.0000   1.0000   1.0000   1.0000   1.0000   1.0000   1.0000
     1.0000   1.0000   1.0000   1.0000   1.0000   1.0000   1.0000   1.0000
     1.0000   1.0000   1.0000   1.0000   1.0000   1.0000   1.0000   1.0000
     1.0000   1.0000   1.0000   1.0000   1.0000   1.0000   1.0000   1.0000
     1.0000   1.0000   1.0000   1.0000   1.0000   1.0000   1.0000   1.0000
     1.0000   1.0000   1.0000   1.0000   1.0000   1.0000   1.0000   1.0000
     1.0000   1.0000   1.0000   1.0000   1.0000   1.0000   1.0000   1.0000
     1.0000   1.0000   1.0000   1.0000   1.0000   1.0000   1.0000   1.0000
     1.0000   1.0000   1.0000   1.0000   1.0000   1.0000   1.0000   1.0000
     1.0000   1.0000   1.0000   1.0000   1.0000   1.0000   1.0000   1.0000
     1.0000   1.0000   1.0000   1.0000   1.0000   1.0000   1.0000   1.0000
     1.0000   1.0000   1.0000   1.0000   1.0000   1.0000   1.0000   1.0000
     1.0000   1.0000   1.0000   1.0000   1.0000   1.0000   1.0000   1.0000
     1.0000   1.0000   1.0000   1.0000   1.0000   1.0000   1.0000   1.0000
     1.0000   1.0000   1.0000   1.0000   1.0000   1.0000   1.0000   1.0000
     1.0000   1.0000   1.0000   1.0000   1.0000   1.0000   1.0000   1.0000
     1.0000   1.0000   1.0000   1.0000   1.0000   1.0000   1.0000   1.0000
     1.0000   1.0000   1.0000   1.0000   1.0000   1.0000   1.0000   1.0000
     1.0000   1.0000   1.0000   1.0000   1.0000   1.0000   1.0000   1.0000
     1.0000   1.0000   1.0000   1.0000   1.0000   1.0000   1.0000   1.0000
     1.0000   1.0000   1.0000   1.0000   1.0000   1.0000   1.0000   1.0000
     1.0000   1.0000   1.0000   1.0000   1.0000   1.0000   1.0000   1.0000
     1.0000   1.0000   1.0000   1.0000   1.0000   1.0000   1.0000   1.0000
     1.0000   1.0000   1.0000   1.0000   1.0000   1.0000   1.0000   1.0000
     1.0000   1.0000   1.0000   1.0000   1.0000   1.0000   1.0000   1.0000
     1.0000   1.0000   1.0000   1.0000   1.0000   1.0000   0.9911   0.9513
     0.8807   0.0510   0.0055   0.0001   0.0000   0.0000   0.0000   0.0000
     0.0000   0.0000   0.0000   0.0000   0.0000   0.0000   0.0000   0.0000
     0.0000   0.0000   0.0000   0.0000   0.0000   0.0000   0.0000   0.0000
     0.0000   0.0000   0.0000   0.0000   0.0000   0.0000   0.0000   0.0000
     0.0000   0.0000   0.0000   0.0000   0.0000   0.0000   0.0000   0.0000
     0.0000   0.0000   0.0000   0.0000   0.0000   0.0000   0.0000   0.0000
     0.0000   0.0000   0.0000   0.0000   0.0000   0.0000   0.0000   0.0000
     0.0000   0.0000   0.0000   0.0000   0.0000   0.0000   0.0000   0.0000
     0.0000   0.0000   0.0000   0.0000   0.0000   0.0000   0.0000   0.0000
     0.0000   0.0000   0.0000   0.0000   0.0000   0.0000

          k = 0.0000-0.5000-0.5000 ( 56972 PWs)   bands (ev):

   -37.6925 -37.6396 -37.5064 -37.2416 -37.2057 -37.1138 -37.0523 -36.9744
   -36.9640 -36.9501 -36.9345 -36.9124 -36.9058 -36.9025 -36.8738 -36.8622
   -36.8263 -36.8123 -36.8093 -36.8022 -36.8011 -36.7948 -36.7479 -36.6861
   -36.6620 -36.6239 -36.4252 -36.3623 -36.3545 -36.3268 -36.2221 -27.2478
   -15.9242 -15.8409 -15.8177 -15.7987 -15.7564 -15.6898 -15.6855 -15.6274
   -15.5808 -15.4591 -15.4426 -15.4271 -15.4155 -15.3773 -15.3626 -15.3499
   -15.3148 -15.3050 -15.2784 -15.2728 -15.2688 -15.2491 -15.2259 -15.2249
   -15.2138 -15.1886 -15.1750 -15.1723 -15.1595 -15.1482 -15.1442 -15.1351
   -15.1183 -15.1090 -15.1063 -15.0931 -15.0839 -15.0763 -15.0749 -15.0719
   -15.0634 -15.0483 -15.0385 -15.0366 -15.0317 -15.0180 -14.9939 -14.9863
   -14.9769 -14.9708 -14.9658 -14.9642 -14.9485 -14.9445 -14.9422 -14.9380
   -14.9282 -14.9218 -14.9127 -14.9079 -14.8979 -14.8941 -14.8901 -14.8861
   -14.8809 -14.8738 -14.8717 -14.8608 -14.8585 -14.8499 -14.8466 -14.8364
   -14.8312 -14.8254 -14.8214 -14.8082 -14.8028 -14.8010 -14.7981 -14.7926
   -14.7906 -14.7806 -14.7727 -14.7661 -14.7535 -14.7447 -14.7150 -14.7043
   -14.6824 -14.6736 -14.6719 -14.6438 -14.6292  -8.2250  -8.2236  -8.2178
    -6.5991  -6.5274  -6.3404  -6.2509  -6.1775  -6.1044  -6.0283  -5.9153
    -5.8978  -5.8437  -5.8141  -5.7740  -5.7442  -5.7239  -5.6289  -5.5887
    -5.5611  -5.5416  -5.5238  -5.5000  -5.4912  -5.4487  -5.4349  -5.4185
    -5.3774  -5.3472  -5.3339  -5.3043  -5.2745  -5.2325  -5.2231  -5.1937
    -5.1731  -5.1495  -5.1154  -5.1021  -5.0675  -5.0489  -5.0250  -5.0003
    -4.9765  -4.9498  -4.9387  -4.9053  -4.8865  -4.8562  -4.8298  -4.8278
    -4.8049  -4.7934  -4.7495  -4.7031  -4.6983  -4.6800  -4.6431  -4.6245
    -4.5866  -4.4333  -4.3996  -4.2531  -4.0515  -4.0050  -3.9726   5.8746
     6.0200   6.0368   6.1285   6.1640   6.1792   6.2414   6.2911   6.3377
     6.3676   6.3871   6.4253   6.4423   6.4549   6.4955   6.5160   6.5838
     6.5858   6.6266   6.6561   6.6661   6.7270   6.7290   6.8034   6.8223
     6.8319   6.8458   6.8793   6.9161   6.9282   6.9522   6.9806   7.0079
     7.0375   7.0412   7.0758   7.0945   7.1349   7.1503   7.1951   7.2040
     7.2315   7.2623   7.2655   7.2822   7.2918   7.3159   7.3368   7.3600
     7.4134   7.4147   7.4411   7.4952   7.5013   7.5106   7.5312   7.5599
     7.5724   7.5755   7.6428   7.6608   7.6655   7.6946   7.7241   7.7540
     7.7723   7.8218   7.8524   7.8658   7.8901   7.9472   7.9738   8.0113
     8.0391   8.0831   8.0892   8.1158   8.1705   8.1770   8.2127   8.2317
     8.2498   8.2828   8.2950   8.3062   8.3229   8.3481   8.3604   8.3743
     8.4246   8.4300   8.4575   8.4754   8.5127   8.5916   8.6020   8.6437
     8.6629   8.6960   8.8032   8.8414   8.9324   8.9927   9.0072   9.1355
     9.1721   9.2097   9.2334   9.2477   9.2919   9.3243   9.3334   9.3646
     9.3960   9.4251   9.4473   9.5156   9.5717   9.5949   9.6079   9.6503
     9.6699   9.6860   9.7055   9.7303   9.7508   9.7701   9.7869   9.8246
     9.8392   9.8586   9.8879   9.9439   9.9491   9.9677   9.9830  10.0090
    10.0197  10.0303  10.0449  10.0576  10.0833  10.0974  10.1050  10.1142
    10.1243  10.1443  10.1559  10.1565  10.1780  10.1956  10.2079  10.2180
    10.2339  10.2552  10.2892  10.3031  10.3185  10.3278  10.3418  10.3593
    10.3695  10.3925  10.4244  10.4405  10.4490  10.4818  10.4930  10.5031
    10.5223  10.5481  10.5553  10.5711  10.5826  10.6174  10.6414  10.6764
    10.7196  10.7463  10.7707  10.7781  10.8237  10.8593  10.9533  10.9920
    11.0626  11.1733  11.1939  11.3285  12.2135  14.0271  14.1391  14.1631
    14.6384  14.6724  14.7685  14.8493  14.9637  14.9878  15.0263  15.0409
    15.0893  15.1191  15.1620  15.2046  15.2120  15.2398  15.2514  15.2746
    15.2900  15.2995  15.3222  15.3269  15.3507  15.3539  15.3695  15.3783
    15.3887  15.4044  15.4158  15.4184  15.4402  15.4597  15.4733  15.4816
    15.4985  15.5053  15.5254  15.5405  15.5659  15.5700  15.5904  15.5977
    15.6053  15.6333  15.6542  15.6874  15.7140  15.7205  15.7627  15.8176
    15.8691  16.0926  16.1042  16.1174  16.1356  16.1589  16.1820  16.2302
    16.2394  16.2916  16.3427  16.3971  16.4660  16.6137  16.9916  17.0126
    17.0575  17.0973  17.1053  17.1526  17.1883  17.2468

     occupation numbers 
     1.0000   1.0000   1.0000   1.0000   1.0000   1.0000   1.0000   1.0000
     1.0000   1.0000   1.0000   1.0000   1.0000   1.0000   1.0000   1.0000
     1.0000   1.0000   1.0000   1.0000   1.0000   1.0000   1.0000   1.0000
     1.0000   1.0000   1.0000   1.0000   1.0000   1.0000   1.0000   1.0000
     1.0000   1.0000   1.0000   1.0000   1.0000   1.0000   1.0000   1.0000
     1.0000   1.0000   1.0000   1.0000   1.0000   1.0000   1.0000   1.0000
     1.0000   1.0000   1.0000   1.0000   1.0000   1.0000   1.0000   1.0000
     1.0000   1.0000   1.0000   1.0000   1.0000   1.0000   1.0000   1.0000
     1.0000   1.0000   1.0000   1.0000   1.0000   1.0000   1.0000   1.0000
     1.0000   1.0000   1.0000   1.0000   1.0000   1.0000   1.0000   1.0000
     1.0000   1.0000   1.0000   1.0000   1.0000   1.0000   1.0000   1.0000
     1.0000   1.0000   1.0000   1.0000   1.0000   1.0000   1.0000   1.0000
     1.0000   1.0000   1.0000   1.0000   1.0000   1.0000   1.0000   1.0000
     1.0000   1.0000   1.0000   1.0000   1.0000   1.0000   1.0000   1.0000
     1.0000   1.0000   1.0000   1.0000   1.0000   1.0000   1.0000   1.0000
     1.0000   1.0000   1.0000   1.0000   1.0000   1.0000   1.0000   1.0000
     1.0000   1.0000   1.0000   1.0000   1.0000   1.0000   1.0000   1.0000
     1.0000   1.0000   1.0000   1.0000   1.0000   1.0000   1.0000   1.0000
     1.0000   1.0000   1.0000   1.0000   1.0000   1.0000   1.0000   1.0000
     1.0000   1.0000   1.0000   1.0000   1.0000   1.0000   1.0000   1.0000
     1.0000   1.0000   1.0000   1.0000   1.0000   1.0000   1.0000   1.0000
     1.0000   1.0000   1.0000   1.0000   1.0000   1.0000   1.0000   1.0000
     1.0000   1.0000   1.0000   1.0000   1.0000   1.0000   1.0000   1.0000
     1.0000   1.0000   1.0000   1.0000   1.0000   1.0000   1.0000   1.0000
     1.0000   1.0000   1.0000   1.0000   1.0000   1.0000   1.0000   1.0000
     1.0000   1.0000   1.0000   1.0000   1.0000   1.0000   1.0000   1.0000
     1.0000   1.0000   1.0000   1.0000   1.0000   1.0000   1.0000   1.0000
     1.0000   1.0000   1.0000   1.0000   1.0000   1.0000   1.0000   1.0000
     1.0000   1.0000   1.0000   1.0000   1.0000   1.0000   1.0000   1.0000
     1.0000   1.0000   1.0000   1.0000   1.0000   1.0000   1.0000   1.0000
     1.0000   1.0000   1.0000   1.0000   1.0000   1.0000   1.0000   1.0000
     1.0000   1.0000   1.0000   1.0000   1.0000   1.0000   1.0000   1.0000
     1.0000   1.0000   1.0000   1.0000   1.0000   1.0000   1.0000   1.0000
     1.0000   1.0000   1.0000   1.0000   1.0000   1.0000   1.0000   1.0000
     1.0000   1.0000   1.0000   1.0000   1.0000   1.0000   1.0000   1.0000
     1.0000   1.0000   1.0000   1.0000   1.0000   1.0000   1.0000   1.0000
     1.0000   1.0000   1.0000   1.0000   1.0000   1.0000   1.0000   1.0000
     1.0000   1.0000   1.0000   1.0000   1.0000   1.0000   1.0000   1.0000
     1.0000   1.0000   1.0000   1.0000   1.0000   1.0000   1.0000   1.0000
     1.0000   1.0000   1.0000   1.0000   1.0000   1.0000   1.0000   1.0000
     1.0000   1.0000   1.0000   1.0000   1.0000   1.0000   1.0000   1.0000
     1.0000   1.0000   1.0000   1.0000   1.0000   1.0000   1.0000   1.0000
     1.0000   1.0000   1.0000   1.0000   1.0000   1.0000   1.0000   1.0000
     1.0000   1.0000   1.0000   1.0000   1.0000   1.0000   1.0000   1.0000
     1.0000   1.0000   1.0000   1.0000   1.0000   1.0000   1.0000   1.0000
     1.0000   1.0000   1.0000   1.0000   1.0000   1.0000   1.0000   1.0000
     1.0000   1.0000   1.0000   1.0000   1.0000   1.0000   1.0000   1.0000
     1.0000   0.9789   0.9456   0.1161   0.0000   0.0000   0.0000   0.0000
     0.0000   0.0000   0.0000   0.0000   0.0000   0.0000   0.0000   0.0000
     0.0000   0.0000   0.0000   0.0000   0.0000   0.0000   0.0000   0.0000
     0.0000   0.0000   0.0000   0.0000   0.0000   0.0000   0.0000   0.0000
     0.0000   0.0000   0.0000   0.0000   0.0000   0.0000   0.0000   0.0000
     0.0000   0.0000   0.0000   0.0000   0.0000   0.0000   0.0000   0.0000
     0.0000   0.0000   0.0000   0.0000   0.0000   0.0000   0.0000   0.0000
     0.0000   0.0000   0.0000   0.0000   0.0000   0.0000   0.0000   0.0000
     0.0000   0.0000   0.0000   0.0000   0.0000   0.0000   0.0000   0.0000
     0.0000   0.0000   0.0000   0.0000   0.0000   0.0000

          k =-0.5000-0.5000-0.5000 ( 57016 PWs)   bands (ev):

   -37.6925 -37.6396 -37.5064 -37.2416 -37.2057 -37.1138 -37.0523 -36.9744
   -36.9640 -36.9501 -36.9345 -36.9124 -36.9058 -36.9024 -36.8738 -36.8622
   -36.8263 -36.8122 -36.8093 -36.8023 -36.8012 -36.7947 -36.7479 -36.6861
   -36.6620 -36.6239 -36.4252 -36.3623 -36.3545 -36.3268 -36.2221 -27.2478
   -15.9243 -15.8413 -15.8190 -15.7990 -15.7563 -15.6892 -15.6850 -15.6269
   -15.5814 -15.4619 -15.4483 -15.4257 -15.4186 -15.3759 -15.3617 -15.3316
   -15.3219 -15.3120 -15.2908 -15.2677 -15.2612 -15.2548 -15.2437 -15.2141
   -15.2055 -15.1940 -15.1807 -15.1675 -15.1487 -15.1350 -15.1285 -15.1232
   -15.1144 -15.1075 -15.0982 -15.0941 -15.0895 -15.0738 -15.0664 -15.0606
   -15.0496 -15.0427 -15.0351 -15.0308 -15.0233 -15.0206 -15.0149 -15.0054
   -14.9901 -14.9838 -14.9756 -14.9692 -14.9588 -14.9499 -14.9482 -14.9345
   -14.9263 -14.9214 -14.9199 -14.9169 -14.9097 -14.8985 -14.8932 -14.8910
   -14.8816 -14.8706 -14.8676 -14.8635 -14.8582 -14.8503 -14.8490 -14.8445
   -14.8360 -14.8251 -14.8198 -14.8097 -14.8085 -14.8030 -14.7953 -14.7918
   -14.7868 -14.7754 -14.7730 -14.7605 -14.7476 -14.7308 -14.7114 -14.7006
   -14.6815 -14.6716 -14.6694 -14.6416 -14.6261  -8.2247  -8.2239  -8.2176
    -6.5462  -6.4970  -6.3582  -6.2427  -6.2183  -6.1782  -6.0413  -5.9766
    -5.9645  -5.8731  -5.8247  -5.7359  -5.6811  -5.6410  -5.6071  -5.5840
    -5.5628  -5.5521  -5.5064  -5.4849  -5.4740  -5.4576  -5.4203  -5.4015
    -5.3808  -5.3438  -5.3245  -5.3133  -5.2999  -5.2657  -5.2331  -5.2137
    -5.1361  -5.1242  -5.1086  -5.0785  -5.0708  -5.0608  -5.0197  -5.0049
    -4.9795  -4.9439  -4.9142  -4.9058  -4.8776  -4.8582  -4.8381  -4.8278
    -4.8074  -4.7832  -4.7780  -4.7466  -4.6984  -4.6626  -4.6472  -4.6112
    -4.5512  -4.4711  -4.4037  -4.2701  -4.0522  -4.0046  -3.9792   6.0804
     6.1996   6.2083   6.2451   6.2667   6.2730   6.3195   6.3425   6.3929
     6.4433   6.4533   6.4702   6.4838   6.5031   6.5100   6.5248   6.5429
     6.5649   6.5858   6.5926   6.6380   6.6509   6.6805   6.6880   6.7361
     6.7419   6.7470   6.7817   6.8225   6.8395   6.8505   6.8849   6.9142
     6.9625   6.9813   7.0098   7.0316   7.0871   7.0945   7.1050   7.2637
     7.3061   7.3454   7.3617   7.3830   7.4021   7.4145   7.4323   7.4796
     7.4854   7.5157   7.5290   7.5304   7.5611   7.5709   7.5793   7.5884
     7.6073   7.6265   7.6539   7.6598   7.6666   7.6960   7.7036   7.7321
     7.7470   7.7605   7.7755   7.7776   7.8035   7.8149   7.8297   7.8380
     7.8547   7.8745   7.8869   7.9036   7.9174   7.9381   7.9510   7.9627
     7.9863   8.0212   8.0399   8.0675   8.0920   8.0966   8.1227   8.1603
     8.1714   8.1876   8.2174   8.2625   8.3397   8.3505   8.3845   8.9806
     9.3861   9.4414   9.4493   9.4848   9.5122   9.5272   9.5391   9.5519
     9.5699   9.5914   9.6002   9.6155   9.6343   9.6505   9.6566   9.6671
     9.6783   9.6956   9.7140   9.7283   9.7372   9.7612   9.7659   9.7702
     9.7820   9.8078   9.8174   9.8308   9.8473   9.8602   9.8724   9.8881
     9.9044   9.9159   9.9280   9.9396   9.9496   9.9613   9.9779   9.9876
    10.0017  10.0162  10.0290  10.0548  10.0639  10.0705  10.0834  10.0961
    10.1085  10.1218  10.1259  10.1410  10.1538  10.1643  10.1702  10.1881
    10.2046  10.2140  10.2163  10.2334  10.2383  10.2459  10.2501  10.2690
    10.2813  10.2984  10.3192  10.3307  10.3488  10.3660  10.3748  10.3838
    10.3988  10.4159  10.4339  10.4462  10.4600  10.4702  10.4940  10.5169
    10.5189  10.5462  10.5692  10.6296  10.6652  10.6931  10.6938  10.7287
    10.7528  10.7876  10.7992  10.8333  12.2961  14.0153  14.0876  14.1391
    14.6886  14.7611  14.8120  14.9763  15.0053  15.0350  15.0771  15.1199
    15.1345  15.1841  15.2187  15.2395  15.2579  15.2650  15.2792  15.2928
    15.2979  15.3254  15.3292  15.3461  15.3505  15.3605  15.3707  15.3971
    15.4031  15.4151  15.4270  15.4303  15.4466  15.4668  15.4916  15.4984
    15.5175  15.5240  15.5262  15.5532  15.5619  15.5711  15.5854  15.5911
    15.5963  15.6196  15.6245  15.6374  15.6726  15.7062  15.7131  15.7343
    15.7629  16.0882  16.1056  16.1198  16.1348  16.1494  16.1774  16.1877
    16.2190  16.2466  16.3174  16.4037  16.4705  16.6027  17.0095  17.0350
    17.0977  17.1228  17.1777  17.2166  17.2831  17.3017

     occupation numbers 
     1.0000   1.0000   1.0000   1.0000   1.0000   1.0000   1.0000   1.0000
     1.0000   1.0000   1.0000   1.0000   1.0000   1.0000   1.0000   1.0000
     1.0000   1.0000   1.0000   1.0000   1.0000   1.0000   1.0000   1.0000
     1.0000   1.0000   1.0000   1.0000   1.0000   1.0000   1.0000   1.0000
     1.0000   1.0000   1.0000   1.0000   1.0000   1.0000   1.0000   1.0000
     1.0000   1.0000   1.0000   1.0000   1.0000   1.0000   1.0000   1.0000
     1.0000   1.0000   1.0000   1.0000   1.0000   1.0000   1.0000   1.0000
     1.0000   1.0000   1.0000   1.0000   1.0000   1.0000   1.0000   1.0000
     1.0000   1.0000   1.0000   1.0000   1.0000   1.0000   1.0000   1.0000
     1.0000   1.0000   1.0000   1.0000   1.0000   1.0000   1.0000   1.0000
     1.0000   1.0000   1.0000   1.0000   1.0000   1.0000   1.0000   1.0000
     1.0000   1.0000   1.0000   1.0000   1.0000   1.0000   1.0000   1.0000
     1.0000   1.0000   1.0000   1.0000   1.0000   1.0000   1.0000   1.0000
[...]
     atom   87 type  1   force =     0.00000000    0.00000000    0.00000000
     atom   88 type  2   force =     0.00000000    0.00000000    0.00000000
     atom   89 type  2   force =     0.00000000    0.00000000    0.00000000
     atom   90 type  1   force =     0.00000000    0.00000000    0.00000000
     atom   91 type  2   force =     0.00000000    0.00000000    0.00000000
     atom   92 type  2   force =     0.00000000    0.00000000    0.00000000
     atom   93 type  1   force =     0.00000000    0.00000000    0.00000000
     atom   94 type  2   force =     0.00000000    0.00000000    0.00000000
     atom   95 type  2   force =     0.00000000    0.00000000    0.00000000
     The SCF correction term to forces
     atom    1 type  1   force =     0.00000637    0.00000348   -0.00001064
     atom    2 type  2   force =     0.00000270    0.00000160   -0.00000121
     atom    3 type  3   force =     0.00005263   -0.00000549   -0.00001670
     atom    4 type  2   force =     0.00000165   -0.00001930   -0.00000375
     atom    5 type  2   force =    -0.00001084   -0.00000028    0.00000291
     atom    6 type  1   force =    -0.00001748    0.00001060    0.00002271
     atom    7 type  2   force =    -0.00000621   -0.00001735    0.00001549
     atom    8 type  2   force =     0.00000073   -0.00001358   -0.00000483
     atom    9 type  1   force =    -0.00001746   -0.00002026    0.00000663
     atom   10 type  2   force =    -0.00000363   -0.00001455   -0.00001585
     atom   11 type  2   force =     0.00001200   -0.00000614   -0.00000493
     atom   12 type  3   force =     0.00000683    0.00002064    0.00000571
     atom   13 type  2   force =    -0.00000036    0.00000729    0.00000883
     atom   14 type  2   force =    -0.00000309   -0.00000936   -0.00000450
     atom   15 type  1   force =     0.00000277   -0.00002706    0.00001884
     atom   16 type  2   force =    -0.00000815   -0.00001700    0.00000540
     atom   17 type  2   force =     0.00000039   -0.00000585    0.00000105
     atom   18 type  1   force =     0.00000547    0.00003291   -0.00000597
     atom   19 type  2   force =     0.00000086    0.00000131   -0.00000807
     atom   20 type  2   force =     0.00001261   -0.00001050    0.00000596
     atom   21 type  1   force =     0.00003164   -0.00002206    0.00000344
     atom   22 type  2   force =     0.00001289   -0.00002093    0.00001385
     atom   23 type  2   force =     0.00000728   -0.00000118   -0.00000284
     atom   24 type  1   force =    -0.00000484   -0.00000594    0.00000428
     atom   25 type  2   force =    -0.00001943    0.00000143   -0.00000773
     atom   26 type  2   force =    -0.00000884    0.00001621    0.00001560
     atom   27 type  4   force =    -0.00000532    0.00002315   -0.00002358
     atom   28 type  2   force =     0.00000654    0.00002462   -0.00000533
     atom   29 type  2   force =    -0.00000341    0.00000239   -0.00000986
     atom   30 type  1   force =    -0.00000788   -0.00003898   -0.00001150
     atom   31 type  2   force =     0.00001447    0.00000521   -0.00000704
     atom   32 type  2   force =    -0.00000037    0.00001249    0.00001249
     atom   33 type  3   force =    -0.00002147    0.00001298    0.00000958
     atom   34 type  2   force =    -0.00000032    0.00001218    0.00001465
     atom   35 type  2   force =     0.00000120    0.00000717   -0.00000187
     atom   36 type  1   force =     0.00000850   -0.00001011    0.00001127
     atom   37 type  2   force =    -0.00000185    0.00000035    0.00000252
     atom   38 type  2   force =    -0.00000191    0.00001684   -0.00000201
     atom   39 type  1   force =    -0.00003424    0.00002412    0.00001832
     atom   40 type  2   force =    -0.00000638    0.00001421    0.00001018
     atom   41 type  2   force =     0.00000648    0.00000383   -0.00000425
     atom   42 type  1   force =     0.00000431   -0.00002149   -0.00001118
     atom   43 type  2   force =     0.00001292   -0.00000293   -0.00001502
     atom   44 type  2   force =     0.00001000    0.00002678    0.00000120
     atom   45 type  3   force =     0.00002937    0.00005697    0.00000578
     atom   46 type  2   force =     0.00001152    0.00001422   -0.00000601
     atom   47 type  2   force =    -0.00000384   -0.00000832    0.00001611
     atom   48 type  1   force =     0.00001009    0.00000822   -0.00001004
     atom   49 type  2   force =    -0.00000102   -0.00001420   -0.00001739
     atom   50 type  2   force =     0.00000161   -0.00000505    0.00000261
     atom   51 type  1   force =    -0.00002429   -0.00000825    0.00000695
     atom   52 type  2   force =     0.00000963   -0.00001510    0.00000908
     atom   53 type  2   force =     0.00000210   -0.00000237   -0.00001429
     atom   54 type  3   force =    -0.00000757   -0.00001857   -0.00002729
     atom   55 type  2   force =     0.00000709   -0.00000403    0.00000737
     atom   56 type  2   force =     0.00000012   -0.00000784   -0.00001355
     atom   57 type  1   force =     0.00000189   -0.00000837   -0.00003638
     atom   58 type  2   force =     0.00000917    0.00000560   -0.00001341
     atom   59 type  2   force =    -0.00001505   -0.00000941    0.00000409
     atom   60 type  1   force =    -0.00003612   -0.00000177    0.00001531
     atom   61 type  2   force =    -0.00001477    0.00000211    0.00000893
     atom   62 type  2   force =    -0.00000606   -0.00000770    0.00000284
     atom   63 type  1   force =     0.00000379   -0.00002673   -0.00002384
     atom   64 type  2   force =     0.00000168   -0.00000854   -0.00000761
     atom   65 type  2   force =    -0.00000098   -0.00000344    0.00001417
     atom   66 type  1   force =    -0.00000920    0.00000510    0.00001007
     atom   67 type  2   force =     0.00000611    0.00000503   -0.00000806
     atom   68 type  2   force =     0.00000061   -0.00000251    0.00000088
     atom   69 type  1   force =    -0.00001959    0.00000298    0.00003086
     atom   70 type  2   force =    -0.00000373   -0.00001518    0.00001167
     atom   71 type  2   force =     0.00000827   -0.00000497   -0.00000673
     atom   72 type  1   force =     0.00001961   -0.00001268   -0.00001333
     atom   73 type  2   force =    -0.00000162    0.00000147   -0.00000184
     atom   74 type  2   force =    -0.00000342    0.00000354    0.00000164
     atom   75 type  1   force =     0.00001129    0.00002114    0.00000564
     atom   76 type  2   force =    -0.00001838    0.00000050    0.00000249
     atom   77 type  2   force =    -0.00000384    0.00000686   -0.00000914
     atom   78 type  1   force =     0.00000674    0.00001134   -0.00001913
     atom   79 type  2   force =     0.00000186    0.00000733   -0.00000565
     atom   80 type  2   force =     0.00000234    0.00000357   -0.00001174
     atom   81 type  1   force =     0.00001128    0.00001026   -0.00001109
     atom   82 type  2   force =     0.00000232    0.00000466   -0.00000044
     atom   83 type  2   force =     0.00000426    0.00000795    0.00000182
     atom   84 type  1   force =     0.00000002   -0.00003079    0.00002732
     atom   85 type  2   force =     0.00000163    0.00001559    0.00002299
     atom   86 type  2   force =    -0.00001144    0.00000541    0.00000065
     atom   87 type  1   force =     0.00001087    0.00002523   -0.00001941
     atom   88 type  2   force =    -0.00000835    0.00000462   -0.00001318
     atom   89 type  2   force =    -0.00002302   -0.00000011    0.00001341
     atom   90 type  1   force =    -0.00000515   -0.00000012    0.00001739
     atom   91 type  2   force =    -0.00000459   -0.00000474    0.00000454
     atom   92 type  2   force =    -0.00000199    0.00000926    0.00000090
     atom   93 type  1   force =    -0.00000406    0.00003314    0.00002009
     atom   94 type  2   force =    -0.00000987    0.00000650    0.00000189
     atom   95 type  2   force =     0.00001446   -0.00000381    0.00000124

     Total force =     0.005189     Total SCF correction =     0.000226
     Energy error            =      5.1E-05 Ry
     Gradient error          =      9.8E-04 Ry/Bohr

     bfgs converged in  18 scf cycles and  17 bfgs steps
     (criteria: energy <  1.0E-04 Ry, force <  1.0E-03 Ry/Bohr)

     End of BFGS Geometry Optimization

     Final energy             =  -11693.6385484530 Ry

     File ./tmp/calc_9Sc1YSZ_Vac_4Zr.bfgs deleted, as requested
Begin final coordinates

ATOMIC_POSITIONS (angstrom)
Zr               0.0051623201        0.0031609144        0.0418587064
O                1.3211425749        1.3243667296        1.3009058447
Sc              -0.0079691437        2.5201005356        2.5511737736
O                1.5638103739        3.8466667390        3.8622008218
O                3.8784606444        1.2539377511        1.2572534362
Zr               2.5055752609       -0.0087029269        2.5815546990
O                3.8621313290        1.5349230513        3.8544681062
O                1.2674176148        3.8714050148        1.2416403998
Zr               2.5352512480        2.5482621293        0.0370075543
O                3.8509784314        3.8280852695        1.4963347167
O                1.2802178334        1.2728874625        3.8666975564
Sc              -0.0279366145       -0.0280445281        5.1049074092
O                1.2399729250        1.2562963878        6.4640771017
O                3.8438456947        3.8467965714        8.9622549162
Zr              -0.0181970497        2.5558096096        7.6947245178
O                1.2824528315        3.8286687051        8.9640468238
O                3.8084087827        1.2424504985        6.4380797560
Zr               2.5379835009       -0.0623353894        7.6972489930
O                3.8495191029        1.2897583838        8.9764535160
O                1.2589016414        3.8155475672        6.4351578005
Zr               2.4355137681        2.4370976276        5.2357691792
O                3.8563308969        3.8263495675        6.1612442959
O                1.2924554302        1.2889410444        9.0045407421
Zr              -0.0027491685        5.1219921916        0.0007735730
O                1.2760182804        6.4017812970        1.1972984999
O                3.8671889812        8.9887832074        3.8396161952
Y               -0.0152896055        7.7309495690        2.5638685158
O                1.3442490837        9.0250311125        3.8890509474
O                3.8340335595        6.4247064169        1.2399916762
Zr               2.4533395385        5.2398702081        2.4398214282
O                3.9061610119        6.1030027833        3.7901315502
O                1.3245759388        9.0751876186        1.2568395510
Sc               2.5446452711        7.7182497951       -0.0099070057
O                3.8544231451        8.9719563308        1.3005236885
O                1.3040822020        6.3690599009        3.8579696991
Zr               0.0310358620        5.1543613616        5.1184392662
O                1.2975623969        6.3717872226        6.3944585154
O                3.8492152586        8.9757684852        8.9675134337
Zr               0.0272917933        7.6971017167        7.6764192495
O                1.2588291961        8.9665964380        8.9690199605
O                3.8789182178        6.4115258658        6.4307812005
Zr               2.5441974397        5.1680875645        7.6783193833
O                3.8551677262        6.3943478497        8.9476178980
O                1.2938067225        8.9342348799        6.4453917499
Sc               2.5094813239        7.7200983853        5.1533387590
O                3.8620216416        8.9699102368        6.4218870410
O                1.2786540422        6.3725543159        8.9098095481
Zr               5.1014820176       -0.0525469366        0.0029325661
O                6.4379930598        1.2387560009        1.2274867749
O                8.9478036160        3.8530471299        3.8558856130
Zr               5.2536062126        2.4290354260        2.4443322186
O                6.1596444718        3.8417428481        3.8303323276
O                9.0087324159        1.3056930452        1.2584305999
Sc               7.7483174421       -0.0060523635        2.5738649234
O                8.9647203382        1.3166804520        3.8504924555
O                6.4338026388        3.8031431796        1.2516062616
Zr               7.7421396635        2.5453399382        0.0200306371
O                8.9600526768        3.8460642941        1.2767307486
O                6.4241365663        1.2543661880        3.8245751908
Zr               5.1353740679       -0.0090406051        5.1152475081
O                6.3660588680        1.3211629825        6.3736725767
O                8.9703797472        3.8422344644        8.9692878474
Zr               5.1411522175        2.5425446348        7.6848334815
O                6.4056554045        3.8366799143        8.9651325269
O                8.9122994088        1.2956886790        6.4156632424
Zr               7.7025347686       -0.0090380919        7.6763706830
O                8.9707851941        1.2796889444        8.9557551441
O                6.4377615499        3.8865829411        6.4351557767
Zr               7.7302312663        2.5052428287        5.0919139676
O                8.9775564030        3.8350623037        6.4168976060
O                6.4006384692        1.2812445402        8.9263115030
Zr               5.1210789146        5.1549660409        0.0054657538
O                6.3612168862        6.3565557421        1.3263147792
O                8.9092761461        9.0103345071        3.9012846086
Zr               5.1124227722        7.6850907514        2.5497573791
O                6.3703955048        8.9486525757        3.8549919172
O                8.8777250945        6.3489269296        1.2483260202
Zr               7.6899188211        5.1145412802        2.5612452064
O                8.9299000417        6.3549164550        3.8956632949
O                6.3621823357        8.8972151964        1.2708959796
Zr               7.6937972916        7.7056409808        0.0172561671
O                8.9153784070        9.0114407967        1.2064313641
O                6.4414033907        6.4335166158        3.8811214321
Zr               5.2409064557        5.2464350910        5.2388024346
O                6.4457378694        6.4571456011        6.4616406997
O                8.9621066662        8.9731718226        8.9566983083
Zr               5.0826663642        7.7086291125        7.7063964791
O                6.4108647575        8.9606930474        8.9581381204
O                9.0102102141        6.3836070663        6.4071552552
Zr               7.7138141202        5.1153394300        7.7056541777
O                8.9651919869        6.4172871862        8.9629981789
O                6.3980421468        9.0208045133        6.3943104885
Zr               7.7315559348        7.7540033645        5.0921485944
O                8.9571589958        8.9478653014        6.4456784385
O                6.3936019310        6.3867878424        9.0141670685
End final coordinates


     Message from routine punch:
     Nothing written, as per user request (disk_io='none')
 
     init_run     :     39.13s CPU     24.21s WALL (       1 calls)
     electrons    :   9349.82s CPU   5976.04s WALL (      18 calls)
     update_pot   :    409.11s CPU    159.78s WALL (      17 calls)
     forces       :     91.07s CPU     73.58s WALL (      18 calls)

     Called by init_run:
     wfcinit      :      6.14s CPU      8.35s WALL (       1 calls)
     wfcinit:atom :      0.11s CPU      0.11s WALL (       8 calls)
     wfcinit:wfcr :      4.21s CPU      4.21s WALL (       8 calls)
     potinit      :     30.13s CPU     12.74s WALL (       1 calls)
     hinit0       :      2.14s CPU      1.55s WALL (       1 calls)

     Called by electrons:
     c_bands      :   3153.49s CPU   3145.75s WALL (     249 calls)
     sum_band     :    588.50s CPU    586.87s WALL (     249 calls)
     v_of_rho     :     18.17s CPU     18.17s WALL (     258 calls)
     v_h          :      9.70s CPU      9.69s WALL (     258 calls)
     v_xc         :      9.06s CPU      9.07s WALL (     276 calls)
     newd         :     44.67s CPU     44.64s WALL (     258 calls)
                                       44.63s GPU  (     258 calls)
     PAW_pot      :   6297.36s CPU   2451.04s WALL (     275 calls)
     mix_rho      :     23.21s CPU     24.19s WALL (     249 calls)

     Called by c_bands:
     init_us_2    :     44.83s CPU     44.73s WALL (    4272 calls)
     cegterg      :   2544.43s CPU   2541.44s WALL (    2039 calls)

     Called by sum_band:
     sum_band:wei :      0.36s CPU      0.37s WALL (     249 calls)
                                        0.37s GPU  (     249 calls)
     sum_band:loo :    525.96s CPU    524.32s WALL (     249 calls)
                                      524.32s GPU  (     249 calls)
     sum_band:buf :    256.62s CPU    256.62s WALL (    1992 calls)
                                      256.60s GPU  (    1992 calls)
     sum_band:ini :     15.94s CPU     15.90s WALL (    1992 calls)
                                       15.89s GPU  (    1992 calls)
     sum_band:cal :    553.53s CPU    208.37s WALL (    2128 calls)
                                       69.26s GPU  (    1992 calls)
     sum_band:bec :      9.38s CPU      8.49s WALL (    2128 calls)
                                        8.11s GPU  (    1992 calls)
     addusdens    :     55.89s CPU     55.95s WALL (     249 calls)
                                       55.95s GPU  (     249 calls)
     addusd:skk   :      2.09s CPU      2.11s WALL (     996 calls)
                                        2.11s GPU  (     996 calls)

     Called by *egterg:
     cdiaghg      :    206.07s CPU    206.32s WALL (   12913 calls)
                                      206.25s GPU  (   12913 calls)
     cegterg:over :    341.99s CPU    342.07s WALL (   11089 calls)
     cegterg:upda :    140.01s CPU    139.99s WALL (   11089 calls)
     cegterg:last :    304.39s CPU    304.32s WALL (    5089 calls)
     h_psi        :   1354.69s CPU   1351.76s WALL (   13136 calls)
                                     1348.84s GPU  (   13136 calls)
     s_psi        :     42.35s CPU     42.45s WALL (   13136 calls)
     g_psi        :      0.12s CPU     13.92s WALL (   11089 calls)
                                       13.86s GPU  (   11089 calls)

     Called by h_psi:
     h_psi:calbec :      1.07s CPU    201.36s WALL (   13136 calls)
                                      201.28s GPU  (   13136 calls)
     vloc_psi     :    913.14s CPU    909.68s WALL (   13136 calls)
                                      909.61s GPU  (   13136 calls)
     add_vuspsi   :     34.92s CPU    228.28s WALL (   13136 calls)
                                      228.19s GPU  (   13136 calls)

     General routines
     calbec       :    554.12s CPU    139.89s WALL (   15840 calls)
     fft          :     19.54s CPU      8.06s WALL (    3542 calls)
                                        1.44s GPU  (    3284 calls)
     ffts         :      4.97s CPU      1.91s WALL (     507 calls)
                                        0.05s GPU  (     249 calls)
     fftw         :      7.65s CPU    728.67s WALL (  394268 calls)
                                      726.92s GPU  (  394268 calls)
     interpolate  :     31.00s CPU     16.86s WALL (     258 calls)
 
     Parallel routines

     PAW routines
     PAW_pot      :   6297.36s CPU   2451.04s WALL (     275 calls)
 
     PWSCF        :      3h 1m CPU      1h49m WALL

 
   This run was terminated on:  21:58:38  27Jan2026            

=------------------------------------------------------------------------------=
   JOB DONE.
=------------------------------------------------------------------------------=
Warning: ieee_divide_by_zero is signaling
Warning: ieee_inexact is signaling
FORTRAN STOP
