level=info msg="Setting CUDA_MODULE_LOADING=LAZY. Please see https://docs.nvidia.com for more information."

     Program PWSCF v.7.3.1 starts on 27Jan2026 at 19: 8:29 

     This program is part of the open-source Quantum ESPRESSO suite
     for quantum simulation of materials; please cite
         "P. Giannozzi et al., J. Phys.:Condens. Matter 21 395502 (2009);
         "P. Giannozzi et al., J. Phys.:Condens. Matter 29 465901 (2017);
         "P. Giannozzi et al., J. Chem. Phys. 152 154105 (2020);
          URL http://www.quantum-espresso.org", 
     in publications or presentations arising from this work. More details at
     http://www.quantum-espresso.org/quote

     Parallel version (MPI & OpenMP), running on       4 processor cores
     Number of MPI processes:                 1
     Threads/MPI process:                     4

     MPI processes distributed on     1 nodes
     20354 MiB available memory on the printing compute node when the environment starts
 
     Reading input from ./FullRun_20260126_1230/9Sc1YSZ_Perfect/espresso.pwi
Warning: card &CELL ignored
Warning: card / ignored
Warning: card &FCP ignored
Warning: card / ignored
Warning: card &RISM ignored
Warning: card / ignored

     Current dimensions of program PWSCF are:
     Max number of different atomic species (ntypx) = 10
     Max number of k-points (npk) =  40000
     Max angular momentum in pseudopotentials (lmaxx) =  4
     file Zr.pbe-spn-kjpaw_psl.1.0.0.UPF: wavefunction(s)  4S 4P renormalized
     file O.pbe-n-kjpaw_psl.1.0.0.UPF: wavefunction(s)  2S 2P renormalized
     file Sc.pbe-spn-kjpaw_psl.1.0.0.UPF: wavefunction(s)  3S 3P 3D renormalized
     file Y.pbe-spn-kjpaw_psl.1.0.0.UPF: wavefunction(s)  4S 4P renormalized
 
     Subspace diagonalization in iterative solution of the eigenvalue problem:
     a serial algorithm will be used

 
     G-vector sticks info
     --------------------
     sticks:   dense  smooth     PW     G-vecs:    dense   smooth      PW
     Sum       14337    7153   1925              1290383   456055   63461
 
     Using Slab Decomposition
 


     bravais-lattice index     =            0
     lattice parameter (alat)  =      19.3697  a.u.
     unit-cell volume          =    7267.2182 (a.u.)^3
     number of atoms/cell      =           96
     number of atomic types    =            4
     number of electrons       =       762.00
     number of Kohn-Sham states=          457
     kinetic-energy cutoff     =      60.0000  Ry
     charge density cutoff     =     480.0000  Ry
     scf convergence threshold =      1.0E-06
     mixing beta               =       0.3000
     number of iterations used =            8  plain     mixing
     energy convergence thresh.=      1.0E-04
     force convergence thresh. =      1.0E-03
     Exchange-correlation= SLA  PW   PBX  PBC
                           (   1   4   3   4   0   0   0)
     nstep                     =          100


     GPU acceleration is ACTIVE.  1 visible GPUs per MPI rank
     GPU-aware MPI enabled


     GPU used by master process:

        Device Number: 0
        Device name: Tesla V100-SXM2-16GB
        Compute capability : 70
        Ratio of single to double precision performance  : 2
        Memory Clock Rate (KHz): 877000
        Memory Bus Width (bits): 4096
        Peak Memory Bandwidth (GB/s): 898.05

     celldm(1)=  19.369693  celldm(2)=   0.000000  celldm(3)=   0.000000
     celldm(4)=   0.000000  celldm(5)=   0.000000  celldm(6)=   0.000000

     crystal axes: (cart. coord. in units of alat)
               a(1) = (   1.000000   0.000000   0.000000 )  
               a(2) = (   0.000000   1.000000   0.000000 )  
               a(3) = (   0.000000   0.000000   1.000000 )  

     reciprocal axes: (cart. coord. in units 2 pi/alat)
               b(1) = (  1.000000  0.000000  0.000000 )  
               b(2) = (  0.000000  1.000000  0.000000 )  
               b(3) = (  0.000000  0.000000  1.000000 )  


     PseudoPot. # 1 for Zr read from file:
     ./pseudos/Zr.pbe-spn-kjpaw_psl.1.0.0.UPF
     MD5 check sum: 02112c41713a0468aff2bb39ef194e36
     Pseudo is Projector augmented-wave + core cor, Zval = 12.0
     Generated using &quot;atomic&quot; code by A. Dal Corso  v.6.2.2
     Shape of augmentation charge: PSQ
     Using radial grid of 1225 points,  6 beta functions with: 
                l(1) =   0
                l(2) =   0
                l(3) =   1
                l(4) =   1
                l(5) =   2
                l(6) =   2
     Q(r) pseudized with 0 coefficients 


     PseudoPot. # 2 for O  read from file:
     ./pseudos/O.pbe-n-kjpaw_psl.1.0.0.UPF
     MD5 check sum: e99d9cef9b487d1ca56f5b95ecd0fd7a
     Pseudo is Projector augmented-wave + core cor, Zval =  6.0
     Generated using &quot;atomic&quot; code by A. Dal Corso  v.6.3
     Shape of augmentation charge: PSQ
     Using radial grid of 1095 points,  4 beta functions with: 
                l(1) =   0
                l(2) =   0
                l(3) =   1
                l(4) =   1
     Q(r) pseudized with 0 coefficients 


     PseudoPot. # 3 for Sc read from file:
     ./pseudos/Sc.pbe-spn-kjpaw_psl.1.0.0.UPF
     MD5 check sum: d5ac433e587a0148d610ca85a1be5559
     Pseudo is Projector augmented-wave + core cor, Zval = 11.0
     Generated using &quot;atomic&quot; code by A. Dal Corso  v.6.2.2
     Shape of augmentation charge: PSQ
     Using radial grid of 1173 points,  6 beta functions with: 
                l(1) =   0
                l(2) =   0
                l(3) =   1
                l(4) =   1
                l(5) =   2
                l(6) =   2
     Q(r) pseudized with 0 coefficients 


     PseudoPot. # 4 for Y  read from file:
     ./pseudos/Y.pbe-spn-kjpaw_psl.1.0.0.UPF
     MD5 check sum: d52e8d8ffa9ef5a9f13bb13aaba2e897
     Pseudo is Projector augmented-wave + core cor, Zval = 11.0
     Generated using &quot;atomic&quot; code by A. Dal Corso  v.6.2.2
     Shape of augmentation charge: PSQ
     Using radial grid of 1223 points,  6 beta functions with: 
                l(1) =   0
                l(2) =   0
                l(3) =   1
                l(4) =   1
                l(5) =   2
                l(6) =   2
     Q(r) pseudized with 0 coefficients 


     atomic species   valence    mass     pseudopotential
     Zr               12.00    91.22400     Zr( 1.00)
     O                 6.00    15.99900     O ( 1.00)
     Sc               11.00    44.95591     Sc( 1.00)
     Y                11.00    88.90584     Y ( 1.00)

     No symmetry found


                                    s                        frac. trans.

      isym =  1     identity                                     

 cryst.   s( 1) = (     1          0          0      )
                  (     0          1          0      )
                  (     0          0          1      )

 cart.    s( 1) = (  1.0000000  0.0000000  0.0000000 )
                  (  0.0000000  1.0000000  0.0000000 )
                  (  0.0000000  0.0000000  1.0000000 )


   Cartesian axes

     site n.     atom                  positions (alat units)
         1        Zr     tau(   1) = (   0.0004846  -0.0001349   0.0006319  )
         2        O      tau(   2) = (   0.1264859   0.1247716   0.1247716  )
         3        O      tau(   3) = (   0.3765407   0.3757487   0.3745420  )
         4        Sc     tau(   4) = (   0.0005293   0.2495479   0.2495456  )
         5        O      tau(   5) = (   0.1252361   0.3731334   0.3733172  )
         6        O      tau(   6) = (   0.3744514   0.1240119   0.1253066  )
         7        Zr     tau(   7) = (   0.2491141  -0.0013779   0.2514299  )
         8        O      tau(   8) = (   0.3747797   0.1250659   0.3736100  )
         9        O      tau(   9) = (   0.1244689   0.3751082   0.1238771  )
        10        Zr     tau(  10) = (   0.2503665   0.2494140  -0.0002846  )
        11        O      tau(  11) = (   0.3744130   0.3768071   0.1249868  )
        12        O      tau(  12) = (   0.1239681   0.1258025   0.3738089  )
        13        Sc     tau(  13) = (   0.0002038  -0.0019119   0.4987042  )
        14        O      tau(  14) = (   0.1251921   0.1257205   0.6251672  )
        15        O      tau(  15) = (   0.3748872   0.3747062   0.8735575  )
        16        Zr     tau(  16) = (  -0.0007023   0.2495506   0.7510313  )
        17        O      tau(  17) = (   0.1253352   0.3732800   0.8753162  )
        18        O      tau(  18) = (   0.3746243   0.1243396   0.6255968  )
        19        Zr     tau(  19) = (   0.2510059   0.0009086   0.7491813  )
        20        O      tau(  20) = (   0.3746983   0.1253232   0.8759518  )
        21        O      tau(  21) = (   0.1245325   0.3748189   0.6239206  )
        22        Zr     tau(  22) = (   0.2488330   0.2507927   0.5013232  )
        23        O      tau(  23) = (   0.3749297   0.3759791   0.6253528  )
        24        O      tau(  24) = (   0.1243706   0.1253526   0.8765005  )
        25        Zr     tau(  25) = (  -0.0000350   0.5015265  -0.0025558  )
        26        O      tau(  26) = (   0.1258019   0.6250849   0.1247083  )
        27        O      tau(  27) = (   0.3750895   0.8730609   0.3747857  )
        28        Y      tau(  28) = (   0.0003484   0.7514418   0.2494944  )
        29        O      tau(  29) = (   0.1242112   0.8745105   0.3758931  )
        30        O      tau(  30) = (   0.3753207   0.6244832   0.1255007  )
        31        Zr     tau(  31) = (   0.2500947   0.5009450   0.2493151  )
        32        O      tau(  32) = (   0.3746803   0.6246175   0.3735722  )
        33        O      tau(  33) = (   0.1252889   0.8752547   0.1250050  )
        34        Sc     tau(  34) = (   0.2497711   0.7486192  -0.0004104  )
        35        O      tau(  35) = (   0.3746656   0.8742173   0.1248426  )
        36        O      tau(  36) = (   0.1253942   0.6268402   0.3751703  )
        37        Zr     tau(  37) = (   0.0002513   0.4999274   0.4981280  )
        38        O      tau(  38) = (   0.1249741   0.6250588   0.6274032  )
        39        O      tau(  39) = (   0.3748123   0.8752942   0.8749661  )
        40        Zr     tau(  40) = (  -0.0011402   0.7511149   0.7507336  )
        41        O      tau(  41) = (   0.1257717   0.8741128   0.8763686  )
        42        O      tau(  42) = (   0.3736323   0.6255725   0.6271370  )
        43        Zr     tau(  43) = (   0.2490336   0.4994475   0.7500972  )
        44        O      tau(  44) = (   0.3745088   0.6234872   0.8750669  )
        45        O      tau(  45) = (   0.1239636   0.8754620   0.6241030  )
        46        Sc     tau(  46) = (   0.2515121   0.7492359   0.4996858  )
        47        O      tau(  47) = (   0.3757937   0.8737992   0.6252219  )
        48        O      tau(  48) = (   0.1262753   0.6234317   0.8751801  )
        49        Zr     tau(  49) = (   0.5002535   0.0007628  -0.0012068  )
        50        O      tau(  50) = (   0.6237117   0.1255092   0.1252897  )
        51        O      tau(  51) = (   0.8752444   0.3753380   0.3743366  )
        52        Zr     tau(  52) = (   0.5002266   0.2502859   0.2493031  )
        53        O      tau(  53) = (   0.6268203   0.3754623   0.3738378  )
        54        O      tau(  54) = (   0.8756405   0.1240491   0.1257679  )
        55        Sc     tau(  55) = (   0.7511303  -0.0008007   0.2509399  )
        56        O      tau(  56) = (   0.8754027   0.1258020   0.3768505  )
        57        O      tau(  57) = (   0.6247606   0.3742646   0.1241322  )
        58        Zr     tau(  58) = (   0.7492041   0.2499248   0.0003328  )
        59        O      tau(  59) = (   0.8752699   0.3758070   0.1250127  )
        60        O      tau(  60) = (   0.6264181   0.1247418   0.3776538  )
        61        Zr     tau(  61) = (   0.5006104  -0.0008363   0.4989552  )
        62        O      tau(  62) = (   0.6254707   0.1247820   0.6256966  )
        63        O      tau(  63) = (   0.8754617   0.3749289   0.8741739  )
        64        Zr     tau(  64) = (   0.4985221   0.2495644   0.7508355  )
        65        O      tau(  65) = (   0.6252089   0.3737846   0.8751690  )
        66        O      tau(  66) = (   0.8753759   0.1241377   0.6251500  )
        67        Zr     tau(  67) = (   0.7500568  -0.0011151   0.7503491  )
        68        O      tau(  68) = (   0.8755471   0.1260566   0.8760281  )
        69        O      tau(  69) = (   0.6236559   0.3740850   0.6255025  )
        70        Zr     tau(  70) = (   0.7505013   0.2505025   0.5037588  )
        71        O      tau(  71) = (   0.8755570   0.3761079   0.6259307  )
        72        O      tau(  72) = (   0.6256355   0.1246924   0.8757405  )
        73        Zr     tau(  73) = (   0.4992460   0.4997690  -0.0004735  )
        74        O      tau(  74) = (   0.6250799   0.6272582   0.1231783  )
        75        O      tau(  75) = (   0.8756695   0.8734266   0.3745396  )
        76        Zr     tau(  76) = (   0.5010624   0.7500627   0.2489485  )
        77        O      tau(  77) = (   0.6243021   0.8756630   0.3742874  )
        78        O      tau(  78) = (   0.8752112   0.6250445   0.1243643  )
        79        Zr     tau(  79) = (   0.7520917   0.5006185   0.2480243  )
        80        O      tau(  80) = (   0.8751819   0.6243544   0.3758316  )
        81        O      tau(  81) = (   0.6242268   0.8748881   0.1254927  )
        82        Zr     tau(  82) = (   0.7508446   0.7488290  -0.0003263  )
        83        O      tau(  83) = (   0.8745366   0.8743626   0.1267224  )
        84        O      tau(  84) = (   0.6253951   0.6237699   0.3758955  )
        85        Zr     tau(  85) = (   0.5020704   0.5010073   0.4985177  )
        86        O      tau(  86) = (   0.6245276   0.6262360   0.6243096  )
        87        O      tau(  87) = (   0.8754330   0.8757557   0.8740957  )
        88        Zr     tau(  88) = (   0.4999419   0.7468378   0.7490006  )
        89        O      tau(  89) = (   0.6247536   0.8737827   0.8765926  )
        90        O      tau(  90) = (   0.8736047   0.6245707   0.6251276  )
        91        Zr     tau(  91) = (   0.7514061   0.4985992   0.7511348  )
        92        O      tau(  92) = (   0.8750100   0.6240424   0.8754508  )
        93        O      tau(  93) = (   0.6251942   0.8744144   0.6250681  )
        94        Zr     tau(  94) = (   0.7496241   0.7501107   0.5006460  )
        95        O      tau(  95) = (   0.8765473   0.8737924   0.6270810  )
        96        O      tau(  96) = (   0.6230955   0.6248519   0.8755740  )

   Crystallographic axes

     site n.     atom                  positions (cryst. coord.)
         1        Zr     tau(   1) = (  0.0004846 -0.0001349  0.0006319  )
         2        O      tau(   2) = (  0.1264859  0.1247716  0.1247716  )
         3        O      tau(   3) = (  0.3765407  0.3757487  0.3745420  )
         4        Sc     tau(   4) = (  0.0005293  0.2495479  0.2495456  )
         5        O      tau(   5) = (  0.1252361  0.3731334  0.3733172  )
         6        O      tau(   6) = (  0.3744514  0.1240119  0.1253066  )
         7        Zr     tau(   7) = (  0.2491141 -0.0013779  0.2514299  )
         8        O      tau(   8) = (  0.3747797  0.1250659  0.3736100  )
         9        O      tau(   9) = (  0.1244689  0.3751082  0.1238771  )
        10        Zr     tau(  10) = (  0.2503665  0.2494140 -0.0002846  )
        11        O      tau(  11) = (  0.3744130  0.3768071  0.1249868  )
        12        O      tau(  12) = (  0.1239681  0.1258025  0.3738089  )
        13        Sc     tau(  13) = (  0.0002038 -0.0019119  0.4987042  )
        14        O      tau(  14) = (  0.1251921  0.1257205  0.6251672  )
        15        O      tau(  15) = (  0.3748872  0.3747062  0.8735575  )
        16        Zr     tau(  16) = ( -0.0007023  0.2495506  0.7510313  )
        17        O      tau(  17) = (  0.1253352  0.3732800  0.8753162  )
        18        O      tau(  18) = (  0.3746243  0.1243396  0.6255968  )
        19        Zr     tau(  19) = (  0.2510059  0.0009086  0.7491813  )
        20        O      tau(  20) = (  0.3746983  0.1253232  0.8759518  )
        21        O      tau(  21) = (  0.1245325  0.3748189  0.6239206  )
        22        Zr     tau(  22) = (  0.2488330  0.2507927  0.5013232  )
        23        O      tau(  23) = (  0.3749297  0.3759791  0.6253528  )
        24        O      tau(  24) = (  0.1243706  0.1253526  0.8765005  )
        25        Zr     tau(  25) = ( -0.0000350  0.5015265 -0.0025558  )
        26        O      tau(  26) = (  0.1258019  0.6250849  0.1247083  )
        27        O      tau(  27) = (  0.3750895  0.8730609  0.3747857  )
        28        Y      tau(  28) = (  0.0003484  0.7514418  0.2494944  )
        29        O      tau(  29) = (  0.1242112  0.8745105  0.3758931  )
        30        O      tau(  30) = (  0.3753207  0.6244832  0.1255007  )
        31        Zr     tau(  31) = (  0.2500947  0.5009450  0.2493151  )
        32        O      tau(  32) = (  0.3746803  0.6246175  0.3735722  )
        33        O      tau(  33) = (  0.1252889  0.8752547  0.1250050  )
        34        Sc     tau(  34) = (  0.2497711  0.7486192 -0.0004104  )
        35        O      tau(  35) = (  0.3746656  0.8742173  0.1248426  )
        36        O      tau(  36) = (  0.1253942  0.6268402  0.3751703  )
        37        Zr     tau(  37) = (  0.0002513  0.4999274  0.4981280  )
        38        O      tau(  38) = (  0.1249741  0.6250588  0.6274032  )
        39        O      tau(  39) = (  0.3748123  0.8752942  0.8749661  )
        40        Zr     tau(  40) = ( -0.0011402  0.7511149  0.7507336  )
        41        O      tau(  41) = (  0.1257717  0.8741128  0.8763686  )
        42        O      tau(  42) = (  0.3736323  0.6255725  0.6271370  )
        43        Zr     tau(  43) = (  0.2490336  0.4994475  0.7500972  )
        44        O      tau(  44) = (  0.3745088  0.6234872  0.8750669  )
        45        O      tau(  45) = (  0.1239636  0.8754620  0.6241030  )
        46        Sc     tau(  46) = (  0.2515121  0.7492359  0.4996858  )
        47        O      tau(  47) = (  0.3757937  0.8737992  0.6252219  )
        48        O      tau(  48) = (  0.1262753  0.6234317  0.8751801  )
        49        Zr     tau(  49) = (  0.5002535  0.0007628 -0.0012068  )
        50        O      tau(  50) = (  0.6237117  0.1255092  0.1252897  )
        51        O      tau(  51) = (  0.8752444  0.3753380  0.3743366  )
        52        Zr     tau(  52) = (  0.5002266  0.2502859  0.2493031  )
        53        O      tau(  53) = (  0.6268203  0.3754623  0.3738378  )
        54        O      tau(  54) = (  0.8756405  0.1240491  0.1257679  )
        55        Sc     tau(  55) = (  0.7511303 -0.0008007  0.2509399  )
        56        O      tau(  56) = (  0.8754027  0.1258020  0.3768505  )
        57        O      tau(  57) = (  0.6247606  0.3742646  0.1241322  )
        58        Zr     tau(  58) = (  0.7492041  0.2499248  0.0003328  )
        59        O      tau(  59) = (  0.8752699  0.3758070  0.1250127  )
        60        O      tau(  60) = (  0.6264181  0.1247418  0.3776538  )
        61        Zr     tau(  61) = (  0.5006104 -0.0008363  0.4989552  )
        62        O      tau(  62) = (  0.6254707  0.1247820  0.6256966  )
        63        O      tau(  63) = (  0.8754617  0.3749289  0.8741739  )
        64        Zr     tau(  64) = (  0.4985221  0.2495644  0.7508355  )
        65        O      tau(  65) = (  0.6252089  0.3737846  0.8751690  )
        66        O      tau(  66) = (  0.8753759  0.1241377  0.6251500  )
        67        Zr     tau(  67) = (  0.7500568 -0.0011151  0.7503491  )
        68        O      tau(  68) = (  0.8755471  0.1260566  0.8760281  )
        69        O      tau(  69) = (  0.6236559  0.3740850  0.6255025  )
        70        Zr     tau(  70) = (  0.7505013  0.2505025  0.5037588  )
        71        O      tau(  71) = (  0.8755570  0.3761079  0.6259307  )
        72        O      tau(  72) = (  0.6256355  0.1246924  0.8757405  )
        73        Zr     tau(  73) = (  0.4992460  0.4997690 -0.0004735  )
        74        O      tau(  74) = (  0.6250799  0.6272582  0.1231783  )
        75        O      tau(  75) = (  0.8756695  0.8734266  0.3745396  )
        76        Zr     tau(  76) = (  0.5010624  0.7500627  0.2489485  )
        77        O      tau(  77) = (  0.6243021  0.8756630  0.3742874  )
        78        O      tau(  78) = (  0.8752112  0.6250445  0.1243643  )
        79        Zr     tau(  79) = (  0.7520917  0.5006185  0.2480243  )
        80        O      tau(  80) = (  0.8751819  0.6243544  0.3758316  )
        81        O      tau(  81) = (  0.6242268  0.8748881  0.1254927  )
        82        Zr     tau(  82) = (  0.7508446  0.7488290 -0.0003263  )
        83        O      tau(  83) = (  0.8745366  0.8743626  0.1267224  )
        84        O      tau(  84) = (  0.6253951  0.6237699  0.3758955  )
        85        Zr     tau(  85) = (  0.5020704  0.5010073  0.4985177  )
        86        O      tau(  86) = (  0.6245276  0.6262360  0.6243096  )
        87        O      tau(  87) = (  0.8754330  0.8757557  0.8740957  )
        88        Zr     tau(  88) = (  0.4999419  0.7468378  0.7490006  )
        89        O      tau(  89) = (  0.6247536  0.8737827  0.8765926  )
        90        O      tau(  90) = (  0.8736047  0.6245707  0.6251276  )
        91        Zr     tau(  91) = (  0.7514061  0.4985992  0.7511348  )
        92        O      tau(  92) = (  0.8750100  0.6240424  0.8754508  )
        93        O      tau(  93) = (  0.6251942  0.8744144  0.6250681  )
        94        Zr     tau(  94) = (  0.7496241  0.7501107  0.5006460  )
        95        O      tau(  95) = (  0.8765473  0.8737924  0.6270810  )
        96        O      tau(  96) = (  0.6230955  0.6248519  0.8755740  )

     number of k points=     8  Gaussian smearing, width (Ry)=  0.0050
                       cart. coord. in units 2pi/alat
        k(    1) = (   0.0000000   0.0000000   0.0000000), wk =   0.2500000
        k(    2) = (   0.0000000   0.0000000  -0.5000000), wk =   0.2500000
        k(    3) = (   0.0000000  -0.5000000  -0.5000000), wk =   0.2500000
        k(    4) = (  -0.5000000  -0.5000000  -0.5000000), wk =   0.2500000
        k(    5) = (  -0.5000000   0.0000000   0.0000000), wk =   0.2500000
        k(    6) = (   0.0000000  -0.5000000   0.0000000), wk =   0.2500000
        k(    7) = (  -0.5000000   0.0000000   0.5000000), wk =   0.2500000
        k(    8) = (  -0.5000000   0.5000000   0.0000000), wk =   0.2500000

                       cryst. coord.
        k(    1) = (   0.0000000   0.0000000   0.0000000), wk =   0.2500000
        k(    2) = (   0.0000000   0.0000000  -0.5000000), wk =   0.2500000
        k(    3) = (   0.0000000  -0.5000000  -0.5000000), wk =   0.2500000
        k(    4) = (  -0.5000000  -0.5000000  -0.5000000), wk =   0.2500000
        k(    5) = (  -0.5000000   0.0000000   0.0000000), wk =   0.2500000
        k(    6) = (   0.0000000  -0.5000000   0.0000000), wk =   0.2500000
        k(    7) = (  -0.5000000   0.0000000   0.5000000), wk =   0.2500000
        k(    8) = (  -0.5000000   0.5000000   0.0000000), wk =   0.2500000

     Dense  grid:  1290383 G-vectors     FFT dimensions: ( 135, 135, 135)

     Smooth grid:   456055 G-vectors     FFT dimensions: (  96,  96,  96)

     Dynamical RAM for                 wfc:     397.72 MB

     Dynamical RAM for     wfc (w. buffer):    3579.48 MB

     Dynamical RAM for           str. fact:      78.76 MB

     Dynamical RAM for           local pot:       0.00 MB

     Dynamical RAM for          nlocal pot:     946.87 MB

     Dynamical RAM for                qrad:       7.03 MB

     Dynamical RAM for          rho,v,vnew:     115.38 MB

     Dynamical RAM for               rhoin:      38.46 MB

     Dynamical RAM for            rho*nmix:     315.03 MB

     Dynamical RAM for           G-vectors:      77.32 MB

     Dynamical RAM for          h,s,v(r/c):      38.24 MB

     Dynamical RAM for          <psi|beta>:       7.59 MB

     Dynamical RAM for                 psi:     795.44 MB

     Dynamical RAM for                hpsi:     795.44 MB

     Dynamical RAM for                spsi:     795.44 MB

     Dynamical RAM for      wfcinit/wfcrot:    1153.44 MB

     Dynamical RAM for           addusdens:    4922.42 MB

     Dynamical RAM for          addusforce:    7413.42 MB

     Estimated static dynamical RAM per process >       4.92 GB

     Estimated max dynamical RAM per process >      12.46 GB

     Check: negative core charge=   -0.000002

     Initial potential from superposition of free atoms

     starting charge     761.9271, renormalised to     762.0000
     Starting wfcs are  657 randomized atomic wfcs
     Checking if some PAW data can be deallocated... 

     total cpu time spent up to now is       25.4 secs

     Self-consistent Calculation
[tb_dev] Currently allocated     3.88E+01 Mbytes, locked:    0 /   6
[tb_pin] Currently allocated     0.00E+00 Mbytes, locked:    0 /   0

     iteration #  1     ecut=    60.00 Ry     beta= 0.30
     Davidson diagonalization with overlap

---- Real-time Memory Report at c_bands before calling an iterative solver
          5419 MiB given to the printing process from OS
             0 MiB allocation reported by mallinfo(arena+hblkhd)
         15283 MiB available memory on the node where the printing process lives
     GPU memory used/free/total (MiB): 9740 / 6403 / 16144
------------------
     ethr =  1.00E-02,  avg # of iterations =  2.0

     total cpu time spent up to now is       46.6 secs

     total energy              =  -11726.96477792 Ry
     estimated scf accuracy    <      35.89017474 Ry
[tb_dev] Currently allocated     7.32E-04 Mbytes, locked:    0 /   2
[tb_pin] Currently allocated     0.00E+00 Mbytes, locked:    0 /   0

     iteration #  2     ecut=    60.00 Ry     beta= 0.30
     Davidson diagonalization with overlap

---- Real-time Memory Report at c_bands before calling an iterative solver
          5531 MiB given to the printing process from OS
             0 MiB allocation reported by mallinfo(arena+hblkhd)
         15173 MiB available memory on the node where the printing process lives
     GPU memory used/free/total (MiB): 11512 / 4631 / 16144
------------------
     ethr =  4.71E-03,  avg # of iterations =  2.0

     total cpu time spent up to now is       68.4 secs

     total energy              =  -11729.16056677 Ry
     estimated scf accuracy    <       8.16973162 Ry
[tb_dev] Currently allocated     7.32E-04 Mbytes, locked:    0 /   2
[tb_pin] Currently allocated     0.00E+00 Mbytes, locked:    0 /   0

     iteration #  3     ecut=    60.00 Ry     beta= 0.30
     Davidson diagonalization with overlap

---- Real-time Memory Report at c_bands before calling an iterative solver
          5547 MiB given to the printing process from OS
             0 MiB allocation reported by mallinfo(arena+hblkhd)
         15150 MiB available memory on the node where the printing process lives
     GPU memory used/free/total (MiB): 11744 / 4399 / 16144
------------------
     ethr =  1.07E-03,  avg # of iterations =  8.9

     total cpu time spent up to now is       97.4 secs

     total energy              =  -11734.59101225 Ry
     estimated scf accuracy    <       9.44309060 Ry
[tb_dev] Currently allocated     7.32E-04 Mbytes, locked:    0 /   2
[tb_pin] Currently allocated     0.00E+00 Mbytes, locked:    0 /   0

     iteration #  4     ecut=    60.00 Ry     beta= 0.30
     Davidson diagonalization with overlap

---- Real-time Memory Report at c_bands before calling an iterative solver
          5577 MiB given to the printing process from OS
             0 MiB allocation reported by mallinfo(arena+hblkhd)
         15115 MiB available memory on the node where the printing process lives
     GPU memory used/free/total (MiB): 12694 / 3449 / 16144
------------------
     ethr =  1.07E-03,  avg # of iterations =  1.9

     total cpu time spent up to now is      118.0 secs

     total energy              =  -11734.82162356 Ry
     estimated scf accuracy    <       3.41500857 Ry
[tb_dev] Currently allocated     7.32E-04 Mbytes, locked:    0 /   2
[tb_pin] Currently allocated     0.00E+00 Mbytes, locked:    0 /   0

     iteration #  5     ecut=    60.00 Ry     beta= 0.30
     Davidson diagonalization with overlap

---- Real-time Memory Report at c_bands before calling an iterative solver
          5592 MiB given to the printing process from OS
             0 MiB allocation reported by mallinfo(arena+hblkhd)
         15108 MiB available memory on the node where the printing process lives
     GPU memory used/free/total (MiB): 12694 / 3449 / 16144
------------------
     ethr =  4.48E-04,  avg # of iterations =  2.0

     total cpu time spent up to now is      139.6 secs

     total energy              =  -11734.82763639 Ry
     estimated scf accuracy    <       1.94190906 Ry
[tb_dev] Currently allocated     7.32E-04 Mbytes, locked:    0 /   2
[tb_pin] Currently allocated     0.00E+00 Mbytes, locked:    0 /   0

     iteration #  6     ecut=    60.00 Ry     beta= 0.30
     Davidson diagonalization with overlap

---- Real-time Memory Report at c_bands before calling an iterative solver
          5622 MiB given to the printing process from OS
             0 MiB allocation reported by mallinfo(arena+hblkhd)
         15072 MiB available memory on the node where the printing process lives
     GPU memory used/free/total (MiB): 12694 / 3449 / 16144
------------------
     ethr =  2.55E-04,  avg # of iterations =  2.0

     total cpu time spent up to now is      160.8 secs

     total energy              =  -11734.56500216 Ry
     estimated scf accuracy    <       1.08198280 Ry
[tb_dev] Currently allocated     7.32E-04 Mbytes, locked:    0 /   2
[tb_pin] Currently allocated     0.00E+00 Mbytes, locked:    0 /   0

     iteration #  7     ecut=    60.00 Ry     beta= 0.30
     Davidson diagonalization with overlap

---- Real-time Memory Report at c_bands before calling an iterative solver
          5641 MiB given to the printing process from OS
             0 MiB allocation reported by mallinfo(arena+hblkhd)
         15044 MiB available memory on the node where the printing process lives
     GPU memory used/free/total (MiB): 12694 / 3449 / 16144
------------------
     c_bands:  5 eigenvalues not converged
     c_bands:  1 eigenvalues not converged
     c_bands:  2 eigenvalues not converged
     c_bands:  3 eigenvalues not converged
     c_bands:  4 eigenvalues not converged
     c_bands:  1 eigenvalues not converged
     ethr =  1.42E-04,  avg # of iterations = 19.0

     total cpu time spent up to now is      188.2 secs

     total energy              =  -11734.99866457 Ry
     estimated scf accuracy    <       8.04721177 Ry
[tb_dev] Currently allocated     7.32E-04 Mbytes, locked:    0 /   2
[tb_pin] Currently allocated     0.00E+00 Mbytes, locked:    0 /   0

     iteration #  8     ecut=    60.00 Ry     beta= 0.30
     Davidson diagonalization with overlap

---- Real-time Memory Report at c_bands before calling an iterative solver
          5661 MiB given to the printing process from OS
             0 MiB allocation reported by mallinfo(arena+hblkhd)
         15017 MiB available memory on the node where the printing process lives
     GPU memory used/free/total (MiB): 12694 / 3449 / 16144
------------------
     ethr =  1.42E-04,  avg # of iterations =  1.8

     total cpu time spent up to now is      209.1 secs

     total energy              =  -11734.93244299 Ry
     estimated scf accuracy    <       4.61485509 Ry
[tb_dev] Currently allocated     7.32E-04 Mbytes, locked:    0 /   2
[tb_pin] Currently allocated     0.00E+00 Mbytes, locked:    0 /   0

     iteration #  9     ecut=    60.00 Ry     beta= 0.30
     Davidson diagonalization with overlap

---- Real-time Memory Report at c_bands before calling an iterative solver
          5682 MiB given to the printing process from OS
             0 MiB allocation reported by mallinfo(arena+hblkhd)
         14996 MiB available memory on the node where the printing process lives
     GPU memory used/free/total (MiB): 12694 / 3449 / 16144
------------------
     ethr =  1.42E-04,  avg # of iterations =  2.0

     total cpu time spent up to now is      231.4 secs

     total energy              =  -11734.87510173 Ry
     estimated scf accuracy    <       1.61001328 Ry
[tb_dev] Currently allocated     7.32E-04 Mbytes, locked:    0 /   2
[tb_pin] Currently allocated     0.00E+00 Mbytes, locked:    0 /   0

     iteration # 10     ecut=    60.00 Ry     beta= 0.30
     Davidson diagonalization with overlap

---- Real-time Memory Report at c_bands before calling an iterative solver
          5703 MiB given to the printing process from OS
             0 MiB allocation reported by mallinfo(arena+hblkhd)
         14966 MiB available memory on the node where the printing process lives
     GPU memory used/free/total (MiB): 12694 / 3449 / 16144
------------------
     ethr =  1.42E-04,  avg # of iterations =  2.0

     total cpu time spent up to now is      252.9 secs

     total energy              =  -11735.05029384 Ry
     estimated scf accuracy    <       0.83379474 Ry
[tb_dev] Currently allocated     7.32E-04 Mbytes, locked:    0 /   2
[tb_pin] Currently allocated     0.00E+00 Mbytes, locked:    0 /   0

     iteration # 11     ecut=    60.00 Ry     beta= 0.30
     Davidson diagonalization with overlap

---- Real-time Memory Report at c_bands before calling an iterative solver
          5703 MiB given to the printing process from OS
             0 MiB allocation reported by mallinfo(arena+hblkhd)
         14967 MiB available memory on the node where the printing process lives
     GPU memory used/free/total (MiB): 12694 / 3449 / 16144
------------------
     ethr =  1.09E-04,  avg # of iterations =  2.3

     total cpu time spent up to now is      274.1 secs

     total energy              =  -11734.91086339 Ry
     estimated scf accuracy    <       0.56606356 Ry
[tb_dev] Currently allocated     7.32E-04 Mbytes, locked:    0 /   2
[tb_pin] Currently allocated     0.00E+00 Mbytes, locked:    0 /   0

     iteration # 12     ecut=    60.00 Ry     beta= 0.30
     Davidson diagonalization with overlap

---- Real-time Memory Report at c_bands before calling an iterative solver
          5703 MiB given to the printing process from OS
             0 MiB allocation reported by mallinfo(arena+hblkhd)
         14960 MiB available memory on the node where the printing process lives
     GPU memory used/free/total (MiB): 12694 / 3449 / 16144
------------------
     ethr =  7.43E-05,  avg # of iterations =  2.0

     total cpu time spent up to now is      295.6 secs

     total energy              =  -11734.94038027 Ry
     estimated scf accuracy    <       0.29553642 Ry
[tb_dev] Currently allocated     7.32E-04 Mbytes, locked:    0 /   2
[tb_pin] Currently allocated     0.00E+00 Mbytes, locked:    0 /   0

     iteration # 13     ecut=    60.00 Ry     beta= 0.30
     Davidson diagonalization with overlap

---- Real-time Memory Report at c_bands before calling an iterative solver
          5704 MiB given to the printing process from OS
             0 MiB allocation reported by mallinfo(arena+hblkhd)
         14960 MiB available memory on the node where the printing process lives
     GPU memory used/free/total (MiB): 12694 / 3449 / 16144
------------------
     ethr =  3.88E-05,  avg # of iterations =  2.8

     total cpu time spent up to now is      317.9 secs

     total energy              =  -11734.98031273 Ry
     estimated scf accuracy    <       0.22153327 Ry
[tb_dev] Currently allocated     7.32E-04 Mbytes, locked:    0 /   2
[tb_pin] Currently allocated     0.00E+00 Mbytes, locked:    0 /   0

     iteration # 14     ecut=    60.00 Ry     beta= 0.30
     Davidson diagonalization with overlap

---- Real-time Memory Report at c_bands before calling an iterative solver
          5704 MiB given to the printing process from OS
             0 MiB allocation reported by mallinfo(arena+hblkhd)
         14960 MiB available memory on the node where the printing process lives
     GPU memory used/free/total (MiB): 12698 / 3445 / 16144
------------------
     ethr =  2.91E-05,  avg # of iterations =  2.0

     total cpu time spent up to now is      339.2 secs

     total energy              =  -11734.98318711 Ry
     estimated scf accuracy    <       0.19078188 Ry
[tb_dev] Currently allocated     7.32E-04 Mbytes, locked:    0 /   2
[tb_pin] Currently allocated     0.00E+00 Mbytes, locked:    0 /   0

     iteration # 15     ecut=    60.00 Ry     beta= 0.30
     Davidson diagonalization with overlap

---- Real-time Memory Report at c_bands before calling an iterative solver
          5704 MiB given to the printing process from OS
             0 MiB allocation reported by mallinfo(arena+hblkhd)
         14960 MiB available memory on the node where the printing process lives
     GPU memory used/free/total (MiB): 12698 / 3445 / 16144
------------------
     ethr =  2.50E-05,  avg # of iterations =  2.0

     total cpu time spent up to now is      360.0 secs

     total energy              =  -11734.98796313 Ry
     estimated scf accuracy    <       0.15371539 Ry
[tb_dev] Currently allocated     7.32E-04 Mbytes, locked:    0 /   2
[tb_pin] Currently allocated     0.00E+00 Mbytes, locked:    0 /   0

     iteration # 16     ecut=    60.00 Ry     beta= 0.30
     Davidson diagonalization with overlap

---- Real-time Memory Report at c_bands before calling an iterative solver
          5711 MiB given to the printing process from OS
             0 MiB allocation reported by mallinfo(arena+hblkhd)
         14963 MiB available memory on the node where the printing process lives
     GPU memory used/free/total (MiB): 12698 / 3445 / 16144
------------------
     c_bands:  1 eigenvalues not converged
     ethr =  2.02E-05,  avg # of iterations =  4.3

     total cpu time spent up to now is      381.4 secs

     total energy              =  -11734.95005907 Ry
     estimated scf accuracy    <       0.14729505 Ry
[tb_dev] Currently allocated     7.32E-04 Mbytes, locked:    0 /   2
[tb_pin] Currently allocated     0.00E+00 Mbytes, locked:    0 /   0

     iteration # 17     ecut=    60.00 Ry     beta= 0.30
     Davidson diagonalization with overlap

---- Real-time Memory Report at c_bands before calling an iterative solver
          5711 MiB given to the printing process from OS
             0 MiB allocation reported by mallinfo(arena+hblkhd)
         14966 MiB available memory on the node where the printing process lives
     GPU memory used/free/total (MiB): 12698 / 3445 / 16144
------------------
     ethr =  1.93E-05,  avg # of iterations =  6.6

     total cpu time spent up to now is      404.0 secs

     total energy              =  -11734.95952338 Ry
     estimated scf accuracy    <       0.10453177 Ry
[tb_dev] Currently allocated     7.32E-04 Mbytes, locked:    0 /   2
[tb_pin] Currently allocated     0.00E+00 Mbytes, locked:    0 /   0

     iteration # 18     ecut=    60.00 Ry     beta= 0.30
     Davidson diagonalization with overlap

---- Real-time Memory Report at c_bands before calling an iterative solver
          5711 MiB given to the printing process from OS
             0 MiB allocation reported by mallinfo(arena+hblkhd)
         14973 MiB available memory on the node where the printing process lives
     GPU memory used/free/total (MiB): 12698 / 3445 / 16144
------------------
     ethr =  1.37E-05,  avg # of iterations =  1.9

     total cpu time spent up to now is      424.8 secs

     total energy              =  -11734.97118207 Ry
     estimated scf accuracy    <       0.02551433 Ry
[tb_dev] Currently allocated     7.32E-04 Mbytes, locked:    0 /   2
[tb_pin] Currently allocated     0.00E+00 Mbytes, locked:    0 /   0

     iteration # 19     ecut=    60.00 Ry     beta= 0.30
     Davidson diagonalization with overlap

---- Real-time Memory Report at c_bands before calling an iterative solver
          5711 MiB given to the printing process from OS
             0 MiB allocation reported by mallinfo(arena+hblkhd)
         14973 MiB available memory on the node where the printing process lives
     GPU memory used/free/total (MiB): 12698 / 3445 / 16144
------------------
     c_bands:  2 eigenvalues not converged
     c_bands:  2 eigenvalues not converged
     c_bands:  5 eigenvalues not converged
     c_bands:  3 eigenvalues not converged
     c_bands:  1 eigenvalues not converged
     c_bands:  3 eigenvalues not converged
     ethr =  3.35E-06,  avg # of iterations = 40.6

     total cpu time spent up to now is      462.6 secs

     total energy              =  -11734.97490373 Ry
     estimated scf accuracy    <       0.00603464 Ry
[tb_dev] Currently allocated     7.32E-04 Mbytes, locked:    0 /   2
[tb_pin] Currently allocated     0.00E+00 Mbytes, locked:    0 /   0

     iteration # 20     ecut=    60.00 Ry     beta= 0.30
     Davidson diagonalization with overlap

---- Real-time Memory Report at c_bands before calling an iterative solver
          5711 MiB given to the printing process from OS
             0 MiB allocation reported by mallinfo(arena+hblkhd)
         14973 MiB available memory on the node where the printing process lives
     GPU memory used/free/total (MiB): 12698 / 3445 / 16144
------------------
     c_bands:  1 eigenvalues not converged
     c_bands:  1 eigenvalues not converged
     c_bands:  1 eigenvalues not converged
     c_bands:  2 eigenvalues not converged
     c_bands:  1 eigenvalues not converged
     c_bands:  3 eigenvalues not converged
     ethr =  7.92E-07,  avg # of iterations = 16.8

     total cpu time spent up to now is      487.2 secs

     total energy              =  -11734.97529095 Ry
     estimated scf accuracy    <       0.00198527 Ry
[tb_dev] Currently allocated     7.32E-04 Mbytes, locked:    0 /   2
[tb_pin] Currently allocated     0.00E+00 Mbytes, locked:    0 /   0

     iteration # 21     ecut=    60.00 Ry     beta= 0.30
     Davidson diagonalization with overlap

---- Real-time Memory Report at c_bands before calling an iterative solver
          5711 MiB given to the printing process from OS
             0 MiB allocation reported by mallinfo(arena+hblkhd)
         14973 MiB available memory on the node where the printing process lives
     GPU memory used/free/total (MiB): 12698 / 3445 / 16144
------------------
     c_bands:  1 eigenvalues not converged
     c_bands:  1 eigenvalues not converged
     c_bands:  4 eigenvalues not converged
     c_bands:  2 eigenvalues not converged
     c_bands:  1 eigenvalues not converged
     ethr =  2.61E-07,  avg # of iterations = 15.6

     total cpu time spent up to now is      515.3 secs

     total energy              =  -11734.97609814 Ry
     estimated scf accuracy    <       0.00171857 Ry
[tb_dev] Currently allocated     7.32E-04 Mbytes, locked:    0 /   2
[tb_pin] Currently allocated     0.00E+00 Mbytes, locked:    0 /   0

     iteration # 22     ecut=    60.00 Ry     beta= 0.30
     Davidson diagonalization with overlap

---- Real-time Memory Report at c_bands before calling an iterative solver
          5711 MiB given to the printing process from OS
             0 MiB allocation reported by mallinfo(arena+hblkhd)
         14966 MiB available memory on the node where the printing process lives
     GPU memory used/free/total (MiB): 12698 / 3445 / 16144
------------------
     c_bands:  2 eigenvalues not converged
     c_bands:  2 eigenvalues not converged
     c_bands:  4 eigenvalues not converged
     c_bands:  2 eigenvalues not converged
     ethr =  2.26E-07,  avg # of iterations = 11.1

     total cpu time spent up to now is      537.7 secs

     total energy              =  -11734.97603451 Ry
     estimated scf accuracy    <       0.00102335 Ry
[tb_dev] Currently allocated     7.32E-04 Mbytes, locked:    0 /   2
[tb_pin] Currently allocated     0.00E+00 Mbytes, locked:    0 /   0

     iteration # 23     ecut=    60.00 Ry     beta= 0.30
     Davidson diagonalization with overlap

---- Real-time Memory Report at c_bands before calling an iterative solver
          5711 MiB given to the printing process from OS
             0 MiB allocation reported by mallinfo(arena+hblkhd)
         14967 MiB available memory on the node where the printing process lives
     GPU memory used/free/total (MiB): 12698 / 3445 / 16144
------------------
     c_bands:  1 eigenvalues not converged
     c_bands:  1 eigenvalues not converged
     ethr =  1.34E-07,  avg # of iterations =  6.8

     total cpu time spent up to now is      559.5 secs

     total energy              =  -11734.97602965 Ry
     estimated scf accuracy    <       0.00049886 Ry
[tb_dev] Currently allocated     7.32E-04 Mbytes, locked:    0 /   2
[tb_pin] Currently allocated     0.00E+00 Mbytes, locked:    0 /   0

     iteration # 24     ecut=    60.00 Ry     beta= 0.30
     Davidson diagonalization with overlap

---- Real-time Memory Report at c_bands before calling an iterative solver
          5711 MiB given to the printing process from OS
             0 MiB allocation reported by mallinfo(arena+hblkhd)
         14967 MiB available memory on the node where the printing process lives
     GPU memory used/free/total (MiB): 12698 / 3445 / 16144
------------------
     c_bands:  1 eigenvalues not converged
     ethr =  6.55E-08,  avg # of iterations =  4.9

     total cpu time spent up to now is      582.1 secs

     total energy              =  -11734.97611140 Ry
     estimated scf accuracy    <       0.00047458 Ry
[tb_dev] Currently allocated     7.32E-04 Mbytes, locked:    0 /   2
[tb_pin] Currently allocated     0.00E+00 Mbytes, locked:    0 /   0

     iteration # 25     ecut=    60.00 Ry     beta= 0.30
     Davidson diagonalization with overlap

---- Real-time Memory Report at c_bands before calling an iterative solver
          5711 MiB given to the printing process from OS
             0 MiB allocation reported by mallinfo(arena+hblkhd)
         14976 MiB available memory on the node where the printing process lives
     GPU memory used/free/total (MiB): 12698 / 3445 / 16144
------------------
     c_bands:  1 eigenvalues not converged
     ethr =  6.23E-08,  avg # of iterations =  4.3

     total cpu time spent up to now is      603.3 secs

     total energy              =  -11734.97610350 Ry
     estimated scf accuracy    <       0.00020378 Ry
[tb_dev] Currently allocated     7.32E-04 Mbytes, locked:    0 /   2
[tb_pin] Currently allocated     0.00E+00 Mbytes, locked:    0 /   0

     iteration # 26     ecut=    60.00 Ry     beta= 0.30
     Davidson diagonalization with overlap

---- Real-time Memory Report at c_bands before calling an iterative solver
          5712 MiB given to the printing process from OS
             0 MiB allocation reported by mallinfo(arena+hblkhd)
         14975 MiB available memory on the node where the printing process lives
     GPU memory used/free/total (MiB): 12698 / 3445 / 16144
------------------
     c_bands:  1 eigenvalues not converged
     ethr =  2.67E-08,  avg # of iterations =  4.3

     total cpu time spent up to now is      625.9 secs

     total energy              =  -11734.97612506 Ry
     estimated scf accuracy    <       0.00007446 Ry
[tb_dev] Currently allocated     7.32E-04 Mbytes, locked:    0 /   2
[tb_pin] Currently allocated     0.00E+00 Mbytes, locked:    0 /   0

     iteration # 27     ecut=    60.00 Ry     beta= 0.30
     Davidson diagonalization with overlap

---- Real-time Memory Report at c_bands before calling an iterative solver
          5712 MiB given to the printing process from OS
             0 MiB allocation reported by mallinfo(arena+hblkhd)
         14975 MiB available memory on the node where the printing process lives
     GPU memory used/free/total (MiB): 12698 / 3445 / 16144
------------------
     ethr =  9.77E-09,  avg # of iterations =  4.6

     total cpu time spent up to now is      647.9 secs

     total energy              =  -11734.97613139 Ry
     estimated scf accuracy    <       0.00002701 Ry
[tb_dev] Currently allocated     7.32E-04 Mbytes, locked:    0 /   2
[tb_pin] Currently allocated     0.00E+00 Mbytes, locked:    0 /   0

     iteration # 28     ecut=    60.00 Ry     beta= 0.30
     Davidson diagonalization with overlap

---- Real-time Memory Report at c_bands before calling an iterative solver
          5712 MiB given to the printing process from OS
             0 MiB allocation reported by mallinfo(arena+hblkhd)
         14974 MiB available memory on the node where the printing process lives
     GPU memory used/free/total (MiB): 12698 / 3445 / 16144
------------------
     c_bands:  4 eigenvalues not converged
     ethr =  3.54E-09,  avg # of iterations =  8.3

     total cpu time spent up to now is      672.0 secs

     total energy              =  -11734.97612985 Ry
     estimated scf accuracy    <       0.00001584 Ry
[tb_dev] Currently allocated     7.32E-04 Mbytes, locked:    0 /   2
[tb_pin] Currently allocated     0.00E+00 Mbytes, locked:    0 /   0

     iteration # 29     ecut=    60.00 Ry     beta= 0.30
     Davidson diagonalization with overlap

---- Real-time Memory Report at c_bands before calling an iterative solver
          5712 MiB given to the printing process from OS
             0 MiB allocation reported by mallinfo(arena+hblkhd)
         14975 MiB available memory on the node where the printing process lives
     GPU memory used/free/total (MiB): 12738 / 3405 / 16144
------------------
     c_bands:  2 eigenvalues not converged
     ethr =  2.08E-09,  avg # of iterations =  8.0

     total cpu time spent up to now is      698.6 secs

     total energy              =  -11734.97613523 Ry
     estimated scf accuracy    <       0.00002424 Ry
[tb_dev] Currently allocated     7.32E-04 Mbytes, locked:    0 /   2
[tb_pin] Currently allocated     0.00E+00 Mbytes, locked:    0 /   0

     iteration # 30     ecut=    60.00 Ry     beta= 0.30
     Davidson diagonalization with overlap

---- Real-time Memory Report at c_bands before calling an iterative solver
          5712 MiB given to the printing process from OS
             0 MiB allocation reported by mallinfo(arena+hblkhd)
         14973 MiB available memory on the node where the printing process lives
     GPU memory used/free/total (MiB): 12738 / 3405 / 16144
------------------
     ethr =  2.08E-09,  avg # of iterations =  1.5

     total cpu time spent up to now is      719.0 secs

     total energy              =  -11734.97613648 Ry
     estimated scf accuracy    <       0.00000268 Ry
[tb_dev] Currently allocated     7.32E-04 Mbytes, locked:    0 /   2
[tb_pin] Currently allocated     0.00E+00 Mbytes, locked:    0 /   0

     iteration # 31     ecut=    60.00 Ry     beta= 0.30
     Davidson diagonalization with overlap

---- Real-time Memory Report at c_bands before calling an iterative solver
          5719 MiB given to the printing process from OS
             0 MiB allocation reported by mallinfo(arena+hblkhd)
         14968 MiB available memory on the node where the printing process lives
     GPU memory used/free/total (MiB): 12738 / 3405 / 16144
------------------
     c_bands:  5 eigenvalues not converged
     ethr =  3.52E-10,  avg # of iterations =  9.0

     total cpu time spent up to now is      743.6 secs

     total energy              =  -11734.97613734 Ry
     estimated scf accuracy    <       0.00000133 Ry
[tb_dev] Currently allocated     7.32E-04 Mbytes, locked:    0 /   2
[tb_pin] Currently allocated     0.00E+00 Mbytes, locked:    0 /   0

     iteration # 32     ecut=    60.00 Ry     beta= 0.30
     Davidson diagonalization with overlap

---- Real-time Memory Report at c_bands before calling an iterative solver
          5719 MiB given to the printing process from OS
             0 MiB allocation reported by mallinfo(arena+hblkhd)
         14967 MiB available memory on the node where the printing process lives
     GPU memory used/free/total (MiB): 12738 / 3405 / 16144
------------------
     c_bands:  1 eigenvalues not converged
     ethr =  1.75E-10,  avg # of iterations =  4.3

     total cpu time spent up to now is      765.9 secs

     total energy              =  -11734.97613759 Ry
     estimated scf accuracy    <       0.00000163 Ry
[tb_dev] Currently allocated     7.32E-04 Mbytes, locked:    0 /   2
[tb_pin] Currently allocated     0.00E+00 Mbytes, locked:    0 /   0

     iteration # 33     ecut=    60.00 Ry     beta= 0.30
     Davidson diagonalization with overlap

---- Real-time Memory Report at c_bands before calling an iterative solver
          5719 MiB given to the printing process from OS
             0 MiB allocation reported by mallinfo(arena+hblkhd)
         14968 MiB available memory on the node where the printing process lives
     GPU memory used/free/total (MiB): 12738 / 3405 / 16144
------------------
     ethr =  1.75E-10,  avg # of iterations =  2.0

     total cpu time spent up to now is      787.1 secs

     End of self-consistent calculation

          k = 0.0000 0.0000 0.0000 ( 57243 PWs)   bands (ev):

   -37.1280 -37.0913 -36.9966 -36.9807 -36.9701 -36.9686 -36.9519 -36.9403
   -36.9270 -36.9050 -36.9000 -36.8912 -36.8818 -36.8560 -36.8476 -36.8467
   -36.8379 -36.8343 -36.8323 -36.8277 -36.8201 -36.8009 -36.7467 -36.7460
   -36.6926 -36.6451 -36.4313 -36.3972 -36.3951 -36.3813 -36.3133 -27.3615
   -15.4503 -15.4379 -15.4351 -15.4092 -15.3927 -15.3850 -15.3677 -15.2645
   -15.2449 -15.2408 -15.2356 -15.2258 -15.2188 -15.2186 -15.2119 -15.2086
   -15.1997 -15.1913 -15.1822 -15.1749 -15.1692 -15.1657 -15.1602 -15.1549
   -15.1493 -15.1425 -15.1404 -15.1335 -15.1283 -15.1251 -15.1123 -15.1072
   -15.0878 -15.0846 -15.0718 -15.0543 -15.0426 -15.0409 -15.0374 -15.0337
   -15.0293 -15.0177 -15.0060 -15.0019 -14.9849 -14.9845 -14.9791 -14.9774
   -14.9707 -14.9635 -14.9593 -14.9545 -14.9499 -14.9409 -14.9387 -14.9308
   -14.9175 -14.9118 -14.9068 -14.9043 -14.8937 -14.8825 -14.8753 -14.8687
   -14.8678 -14.8546 -14.8540 -14.8496 -14.8442 -14.8383 -14.8325 -14.8291
   -14.8199 -14.8179 -14.8122 -14.8092 -14.8053 -14.7987 -14.7949 -14.7903
   -14.7859 -14.7832 -14.7764 -14.7670 -14.7545 -14.7527 -14.7354 -14.7299
   -14.7136 -14.7025 -14.6897 -14.6726 -14.6595  -8.3431  -8.3339  -8.3184
    -6.8221  -5.9981  -5.9739  -5.9640  -5.9509  -5.9365  -5.9037  -5.8856
    -5.8620  -5.8273  -5.8019  -5.6625  -5.6214  -5.6183  -5.5988  -5.5863
    -5.5509  -5.5342  -5.4947  -5.4870  -5.4512  -5.4504  -5.3832  -5.3447
    -5.3343  -5.3173  -5.2983  -5.2920  -5.2842  -5.2621  -5.2531  -5.2495
    -5.2021  -5.1809  -5.1636  -5.1568  -5.1159  -5.0960  -5.0675  -5.0501
    -5.0269  -5.0110  -4.9857  -4.9615  -4.9462  -4.9315  -4.9029  -4.8901
    -4.8708  -4.8499  -4.8030  -4.7787  -4.7706  -4.7522  -4.7314  -4.7143
    -4.6933  -4.6627  -4.6250  -4.5570  -4.2265  -4.1397  -4.1107  -4.0482
     5.5473   5.5580   5.5811   6.2158   6.2228   6.2279   6.5088   6.5103
     6.5199   6.5300   6.5442   6.5789   6.5946   6.6047   6.6292   6.6637
     6.6673   6.6896   6.7132   6.7304   6.7374   6.7402   6.7733   6.7966
     6.8244   6.8301   6.8315   6.8614   6.8729   6.8883   6.9097   6.9413
     6.9620   6.9705   6.9780   7.0123   7.0400   7.0844   7.1055   7.1611
     7.2265   7.2636   7.2851   7.3053   7.3310   7.3382   7.3574   7.3733
     7.3928   7.4279   7.6881   7.7146   7.7172   7.7275   7.7361   7.7415
     7.7447   7.7594   7.8134   7.8345   7.9106   7.9151   7.9710   7.9824
     8.0166   8.0417   8.0638   8.1075   8.1283   8.1408   8.1561   8.1611
     8.1720   8.1864   8.2157   8.2254   8.2374   8.2388   8.2471   8.2721
     8.2894   8.3106   8.3361   8.3498   8.3632   8.3852   8.4586   8.4842
     8.5315   8.5450   8.5979   8.6198   8.7026   8.7168   8.7385   8.7561
     8.8049   8.8078   8.8207   8.8230   8.8351   8.8432   8.8584   8.8627
     8.8729   8.8758   8.8945   8.8973   8.9046   8.9139   8.9360   8.9884
     9.0104   9.0211   9.0352   9.0461   9.0634   9.0745   9.0850   9.1078
     9.1167   9.1336   9.1654   9.1711   9.3430   9.3647   9.3717   9.3895
     9.4061   9.4226   9.4437   9.4532   9.5389   9.5601   9.5801   9.6113
     9.6807   9.6906   9.7000   9.7071   9.7162   9.7609   9.7720   9.7807
     9.7904   9.8143   9.8252   9.8778   9.9106   9.9274  10.0937  10.1091
    10.1758  10.1959  10.2240  10.2579  10.5159  10.5275  10.5474  10.5909
    10.6014  10.6201  10.6470  10.6615  10.6904  10.7267  10.7475  10.7611
    10.7746  10.7903  10.7965  10.8051  10.8390  10.8667  10.8884  10.9016
    10.9199  10.9409  10.9557  10.9767  11.0572  11.0704  11.0778  11.1121
    11.1211  11.1343  11.1749  11.1935  11.2321  11.4642  11.4945  11.5069
    14.6680  14.6752  14.9622  14.9656  14.9825  14.9911  15.0158  15.0279
    15.0508  15.0634  15.0653  15.0785  15.0798  15.1017  15.1300  15.1374
    15.1697  15.2086  15.2175  15.2402  15.2630  15.2711  15.2999  15.3302
    15.3308  15.3596  15.3794  15.3924  15.4187  15.4336  15.4740  15.4919
    15.5270  15.5659  15.5837  15.6241  15.6458  15.6714  15.6856  15.7091
    15.7199  15.7394  15.7501  15.7716  15.7880  15.8104  15.8412  15.8454
    15.8826  15.9068  15.9292  15.9373  16.0945  16.1238  16.1646  16.1832
    16.1968  16.2424  16.2472  16.2897  16.3055  16.3348  16.9337  16.9358
    16.9375  17.1489  17.1696  17.1768  17.1873  17.3233  17.3385  17.3573
    17.3704

     occupation numbers 
     1.0000   1.0000   1.0000   1.0000   1.0000   1.0000   1.0000   1.0000
     1.0000   1.0000   1.0000   1.0000   1.0000   1.0000   1.0000   1.0000
     1.0000   1.0000   1.0000   1.0000   1.0000   1.0000   1.0000   1.0000
     1.0000   1.0000   1.0000   1.0000   1.0000   1.0000   1.0000   1.0000
     1.0000   1.0000   1.0000   1.0000   1.0000   1.0000   1.0000   1.0000
     1.0000   1.0000   1.0000   1.0000   1.0000   1.0000   1.0000   1.0000
     1.0000   1.0000   1.0000   1.0000   1.0000   1.0000   1.0000   1.0000
     1.0000   1.0000   1.0000   1.0000   1.0000   1.0000   1.0000   1.0000
     1.0000   1.0000   1.0000   1.0000   1.0000   1.0000   1.0000   1.0000
     1.0000   1.0000   1.0000   1.0000   1.0000   1.0000   1.0000   1.0000
     1.0000   1.0000   1.0000   1.0000   1.0000   1.0000   1.0000   1.0000
     1.0000   1.0000   1.0000   1.0000   1.0000   1.0000   1.0000   1.0000
     1.0000   1.0000   1.0000   1.0000   1.0000   1.0000   1.0000   1.0000
     1.0000   1.0000   1.0000   1.0000   1.0000   1.0000   1.0000   1.0000
     1.0000   1.0000   1.0000   1.0000   1.0000   1.0000   1.0000   1.0000
     1.0000   1.0000   1.0000   1.0000   1.0000   1.0000   1.0000   1.0000
     1.0000   1.0000   1.0000   1.0000   1.0000   1.0000   1.0000   1.0000
     1.0000   1.0000   1.0000   1.0000   1.0000   1.0000   1.0000   1.0000
     1.0000   1.0000   1.0000   1.0000   1.0000   1.0000   1.0000   1.0000
     1.0000   1.0000   1.0000   1.0000   1.0000   1.0000   1.0000   1.0000
     1.0000   1.0000   1.0000   1.0000   1.0000   1.0000   1.0000   1.0000
     1.0000   1.0000   1.0000   1.0000   1.0000   1.0000   1.0000   1.0000
     1.0000   1.0000   1.0000   1.0000   1.0000   1.0000   1.0000   1.0000
     1.0000   1.0000   1.0000   1.0000   1.0000   1.0000   1.0000   1.0000
     1.0000   1.0000   1.0000   1.0000   1.0000   1.0000   1.0000   1.0000
     1.0000   1.0000   1.0000   1.0000   1.0000   1.0000   1.0000   1.0000
     1.0000   1.0000   1.0000   1.0000   1.0000   1.0000   1.0000   1.0000
     1.0000   1.0000   1.0000   1.0000   1.0000   1.0000   1.0000   1.0000
     1.0000   1.0000   1.0000   1.0000   1.0000   1.0000   1.0000   1.0000
     1.0000   1.0000   1.0000   1.0000   1.0000   1.0000   1.0000   1.0000
     1.0000   1.0000   1.0000   1.0000   1.0000   1.0000   1.0000   1.0000
     1.0000   1.0000   1.0000   1.0000   1.0000   1.0000   1.0000   1.0000
     1.0000   1.0000   1.0000   1.0000   1.0000   1.0000   1.0000   1.0000
     1.0000   1.0000   1.0000   1.0000   1.0000   1.0000   1.0000   1.0000
     1.0000   1.0000   1.0000   1.0000   1.0000   1.0000   1.0000   1.0000
     1.0000   1.0000   1.0000   1.0000   1.0000   1.0000   1.0000   1.0000
     1.0000   1.0000   1.0000   1.0000   1.0000   1.0000   1.0000   1.0000
     1.0000   1.0000   1.0000   1.0000   1.0000   1.0000   1.0000   1.0000
     1.0000   1.0000   1.0000   1.0000   1.0000   1.0000   1.0000   1.0000
     1.0000   1.0000   1.0000   1.0000   1.0000   1.0000   1.0000   1.0000
     1.0000   1.0000   1.0000   1.0000   1.0000   1.0000   1.0000   1.0000
     1.0000   1.0000   1.0000   1.0000   1.0000   1.0000   1.0000   1.0000
     1.0000   1.0000   1.0000   1.0000   1.0000   1.0000   1.0000   1.0000
     1.0000   1.0000   1.0000   1.0000   1.0000   1.0000   1.0000   1.0000
     1.0000   1.0000   1.0000   1.0000   1.0000   1.0000   1.0000   1.0000
     1.0000   1.0000   1.0000   1.0000   1.0000   1.0000   1.0000   1.0000
     1.0000   1.0000   1.0000   0.9998   0.9671   0.9411   0.9207   0.7576
     0.6952   0.5930   0.2719   0.1598   0.0361   0.0000   0.0000   0.0000
     0.0000   0.0000   0.0000   0.0000   0.0000   0.0000   0.0000   0.0000
     0.0000   0.0000   0.0000   0.0000   0.0000   0.0000   0.0000   0.0000
     0.0000   0.0000   0.0000   0.0000   0.0000   0.0000   0.0000   0.0000
     0.0000   0.0000   0.0000   0.0000   0.0000   0.0000   0.0000   0.0000
     0.0000   0.0000   0.0000   0.0000   0.0000   0.0000   0.0000   0.0000
     0.0000   0.0000   0.0000   0.0000   0.0000   0.0000   0.0000   0.0000
     0.0000   0.0000   0.0000   0.0000   0.0000   0.0000   0.0000   0.0000
     0.0000   0.0000   0.0000   0.0000   0.0000   0.0000   0.0000   0.0000
     0.0000   0.0000   0.0000   0.0000   0.0000   0.0000   0.0000   0.0000
     0.0000

          k = 0.0000 0.0000-0.5000 ( 56960 PWs)   bands (ev):

   -37.1280 -37.0913 -36.9966 -36.9807 -36.9700 -36.9688 -36.9519 -36.9402
   -36.9270 -36.9050 -36.9000 -36.8912 -36.8818 -36.8560 -36.8477 -36.8467
   -36.8379 -36.8343 -36.8322 -36.8277 -36.8200 -36.8010 -36.7467 -36.7460
   -36.6926 -36.6451 -36.4313 -36.3972 -36.3951 -36.3813 -36.3133 -27.3615
   -15.4375 -15.4180 -15.4137 -15.3937 -15.3609 -15.3565 -15.3279 -15.3131
   -15.2941 -15.2918 -15.2819 -15.2625 -15.2489 -15.2461 -15.2359 -15.2224
   -15.2046 -15.2014 -15.1991 -15.1805 -15.1767 -15.1663 -15.1607 -15.1520
   -15.1506 -15.1398 -15.1348 -15.1222 -15.1172 -15.1122 -15.1095 -15.1016
   -15.1001 -15.0966 -15.0806 -15.0737 -15.0627 -15.0327 -15.0228 -15.0210
   -14.9920 -14.9821 -14.9740 -14.9707 -14.9667 -14.9590 -14.9560 -14.9469
   -14.9468 -14.9391 -14.9364 -14.9345 -14.9313 -14.9281 -14.9227 -14.9188
   -14.9162 -14.9153 -14.9087 -14.9005 -14.8986 -14.8962 -14.8794 -14.8746
   -14.8712 -14.8630 -14.8617 -14.8552 -14.8531 -14.8493 -14.8379 -14.8338
   -14.8324 -14.8252 -14.8175 -14.8142 -14.8121 -14.8082 -14.8026 -14.7939
   -14.7879 -14.7827 -14.7733 -14.7728 -14.7615 -14.7556 -14.7426 -14.7396
   -14.7194 -14.7067 -14.6930 -14.6787 -14.6627  -8.3445  -8.3343  -8.3192
    -6.6310  -6.4573  -5.9635  -5.9252  -5.9126  -5.8930  -5.8689  -5.8443
    -5.8221  -5.7973  -5.7667  -5.7099  -5.6996  -5.6505  -5.6100  -5.5950
    -5.5544  -5.5235  -5.5023  -5.4862  -5.4754  -5.4180  -5.3872  -5.3373
    -5.3297  -5.3179  -5.3089  -5.2858  -5.2735  -5.2577  -5.2409  -5.2143
    -5.1910  -5.1847  -5.1342  -5.1011  -5.0903  -5.0809  -5.0661  -5.0331
    -5.0202  -4.9999  -4.9843  -4.9512  -4.9396  -4.9228  -4.8934  -4.8904
    -4.8606  -4.8564  -4.8184  -4.8138  -4.7971  -4.7749  -4.7617  -4.7408
    -4.7218  -4.6515  -4.5668  -4.4602  -4.3164  -4.1575  -4.1257  -4.0576
     5.7471   5.7792   5.9977   6.0165   6.0259   6.2513   6.2820   6.2909
     6.4720   6.4967   6.5379   6.5653   6.5806   6.5923   6.6573   6.6636
     6.6919   6.7081   6.7298   6.7653   6.7808   6.8001   6.8074   6.8366
     6.8697   6.8745   6.8939   6.9132   6.9261   6.9763   6.9797   7.0067
     7.0181   7.0300   7.0517   7.0625   7.0705   7.1251   7.1384   7.1851
     7.2018   7.2405   7.2470   7.2779   7.2822   7.3138   7.3496   7.3519
     7.4175   7.4182   7.4501   7.4776   7.5109   7.5348   7.5723   7.6238
     7.6308   7.6703   7.6902   7.7185   7.7281   7.7496   7.7597   7.7780
     7.7961   7.8494   7.8789   7.9103   7.9396   7.9459   7.9618   7.9838
     8.1322   8.1389   8.1432   8.1765   8.2878   8.3083   8.3516   8.3881
     8.3970   8.4098   8.4304   8.4448   8.4799   8.4992   8.5311   8.5520
     8.5635   8.5728   8.5863   8.5972   8.6175   8.6312   8.6498   8.6783
     8.6979   8.7319   8.7568   8.7812   8.7967   8.8071   8.8508   8.8687
     8.8886   8.9016   8.9124   8.9358   8.9947   8.9952   9.0432   9.0777
     9.0868   9.0948   9.1271   9.1568   9.2528   9.2542   9.2632   9.2888
     9.2962   9.3197   9.3356   9.3606   9.3664   9.3899   9.4818   9.4959
     9.5126   9.5538   9.5826   9.6423   9.7035   9.7403   9.7640   9.8399
     9.9010   9.9248   9.9683   9.9801  10.0123  10.0433  10.0686  10.0760
    10.1052  10.1151  10.1212  10.1705  10.1841  10.2079  10.2212  10.2267
    10.2485  10.2533  10.2723  10.2826  10.2851  10.3614  10.3701  10.3839
    10.4143  10.4235  10.4371  10.4652  10.4849  10.5181  10.5496  10.5817
    10.5968  10.6098  10.6236  10.6538  10.6721  10.6810  10.7099  10.7484
    10.7614  10.7908  10.8068  10.8203  10.8405  10.8616  10.8981  10.9457
    10.9577  10.9838  11.0793  11.1275  11.1352  11.2707  11.4004  11.4557
    14.7319  14.9309  14.9557  15.0202  15.0461  15.0675  15.0817  15.1206
    15.1288  15.1501  15.1529  15.1600  15.1723  15.1910  15.2078  15.2163
    15.2292  15.2379  15.2626  15.2769  15.2938  15.3034  15.3256  15.3471
    15.3650  15.3788  15.3949  15.4333  15.4397  15.4627  15.4739  15.4747
    15.5081  15.5148  15.5365  15.5661  15.5787  15.5911  15.6259  15.6290
    15.6563  15.6663  15.6759  15.6852  15.7336  15.7544  15.7977  15.8074
    15.8234  15.8374  15.8569  15.8788  16.0989  16.1154  16.1427  16.1518
    16.1723  16.1905  16.1934  16.2306  16.2698  16.3224  16.9874  16.9911
    17.0940  17.0985  17.2260  17.2321  17.2335  17.2457  17.2928  17.3018
    17.3826

     occupation numbers 
     1.0000   1.0000   1.0000   1.0000   1.0000   1.0000   1.0000   1.0000
     1.0000   1.0000   1.0000   1.0000   1.0000   1.0000   1.0000   1.0000
     1.0000   1.0000   1.0000   1.0000   1.0000   1.0000   1.0000   1.0000
     1.0000   1.0000   1.0000   1.0000   1.0000   1.0000   1.0000   1.0000
     1.0000   1.0000   1.0000   1.0000   1.0000   1.0000   1.0000   1.0000
     1.0000   1.0000   1.0000   1.0000   1.0000   1.0000   1.0000   1.0000
     1.0000   1.0000   1.0000   1.0000   1.0000   1.0000   1.0000   1.0000
     1.0000   1.0000   1.0000   1.0000   1.0000   1.0000   1.0000   1.0000
     1.0000   1.0000   1.0000   1.0000   1.0000   1.0000   1.0000   1.0000
     1.0000   1.0000   1.0000   1.0000   1.0000   1.0000   1.0000   1.0000
     1.0000   1.0000   1.0000   1.0000   1.0000   1.0000   1.0000   1.0000
     1.0000   1.0000   1.0000   1.0000   1.0000   1.0000   1.0000   1.0000
     1.0000   1.0000   1.0000   1.0000   1.0000   1.0000   1.0000   1.0000
     1.0000   1.0000   1.0000   1.0000   1.0000   1.0000   1.0000   1.0000
     1.0000   1.0000   1.0000   1.0000   1.0000   1.0000   1.0000   1.0000
     1.0000   1.0000   1.0000   1.0000   1.0000   1.0000   1.0000   1.0000
     1.0000   1.0000   1.0000   1.0000   1.0000   1.0000   1.0000   1.0000
     1.0000   1.0000   1.0000   1.0000   1.0000   1.0000   1.0000   1.0000
     1.0000   1.0000   1.0000   1.0000   1.0000   1.0000   1.0000   1.0000
     1.0000   1.0000   1.0000   1.0000   1.0000   1.0000   1.0000   1.0000
     1.0000   1.0000   1.0000   1.0000   1.0000   1.0000   1.0000   1.0000
     1.0000   1.0000   1.0000   1.0000   1.0000   1.0000   1.0000   1.0000
     1.0000   1.0000   1.0000   1.0000   1.0000   1.0000   1.0000   1.0000
     1.0000   1.0000   1.0000   1.0000   1.0000   1.0000   1.0000   1.0000
     1.0000   1.0000   1.0000   1.0000   1.0000   1.0000   1.0000   1.0000
     1.0000   1.0000   1.0000   1.0000   1.0000   1.0000   1.0000   1.0000
     1.0000   1.0000   1.0000   1.0000   1.0000   1.0000   1.0000   1.0000
     1.0000   1.0000   1.0000   1.0000   1.0000   1.0000   1.0000   1.0000
     1.0000   1.0000   1.0000   1.0000   1.0000   1.0000   1.0000   1.0000
     1.0000   1.0000   1.0000   1.0000   1.0000   1.0000   1.0000   1.0000
     1.0000   1.0000   1.0000   1.0000   1.0000   1.0000   1.0000   1.0000
     1.0000   1.0000   1.0000   1.0000   1.0000   1.0000   1.0000   1.0000
     1.0000   1.0000   1.0000   1.0000   1.0000   1.0000   1.0000   1.0000
     1.0000   1.0000   1.0000   1.0000   1.0000   1.0000   1.0000   1.0000
     1.0000   1.0000   1.0000   1.0000   1.0000   1.0000   1.0000   1.0000
     1.0000   1.0000   1.0000   1.0000   1.0000   1.0000   1.0000   1.0000
     1.0000   1.0000   1.0000   1.0000   1.0000   1.0000   1.0000   1.0000
     1.0000   1.0000   1.0000   1.0000   1.0000   1.0000   1.0000   1.0000
     1.0000   1.0000   1.0000   1.0000   1.0000   1.0000   1.0000   1.0000
     1.0000   1.0000   1.0000   1.0000   1.0000   1.0000   1.0000   1.0000
     1.0000   1.0000   1.0000   1.0000   1.0000   1.0000   1.0000   1.0000
     1.0000   1.0000   1.0000   1.0000   1.0000   1.0000   1.0000   1.0000
     1.0000   1.0000   1.0000   1.0000   1.0000   1.0000   1.0000   1.0000
     1.0000   1.0000   1.0000   1.0000   1.0000   1.0000   1.0000   1.0000
     1.0000   1.0000   1.0000   1.0000   1.0000   1.0000   1.0000   1.0000
     1.0000   1.0000   1.0000   1.0000   1.0000   1.0000   1.0000   1.0000
     1.0000   1.0000   1.0000   1.0000   1.0000   1.0000   1.0000   1.0000
     1.0000   0.9996   0.9160   0.6468   0.5862   0.0047   0.0000   0.0000
     0.0000   0.0000   0.0000   0.0000   0.0000   0.0000   0.0000   0.0000
     0.0000   0.0000   0.0000   0.0000   0.0000   0.0000   0.0000   0.0000
     0.0000   0.0000   0.0000   0.0000   0.0000   0.0000   0.0000   0.0000
     0.0000   0.0000   0.0000   0.0000   0.0000   0.0000   0.0000   0.0000
     0.0000   0.0000   0.0000   0.0000   0.0000   0.0000   0.0000   0.0000
     0.0000   0.0000   0.0000   0.0000   0.0000   0.0000   0.0000   0.0000
     0.0000   0.0000   0.0000   0.0000   0.0000   0.0000   0.0000   0.0000
     0.0000   0.0000   0.0000   0.0000   0.0000   0.0000   0.0000   0.0000
     0.0000   0.0000   0.0000   0.0000   0.0000   0.0000   0.0000   0.0000
     0.0000

          k = 0.0000-0.5000-0.5000 ( 56972 PWs)   bands (ev):

   -37.1280 -37.0913 -36.9966 -36.9807 -36.9700 -36.9687 -36.9519 -36.9402
   -36.9270 -36.9050 -36.9001 -36.8913 -36.8818 -36.8560 -36.8478 -36.8465
   -36.8378 -36.8345 -36.8321 -36.8278 -36.8201 -36.8010 -36.7467 -36.7460
   -36.6926 -36.6451 -36.4313 -36.3972 -36.3951 -36.3813 -36.3133 -27.3615
   -15.4246 -15.4080 -15.4029 -15.3789 -15.3610 -15.3384 -15.3170 -15.3151
   -15.3009 -15.2971 -15.2882 -15.2775 -15.2730 -15.2559 -15.2470 -15.2356
   -15.2226 -15.2186 -15.2129 -15.2098 -15.2036 -15.1866 -15.1847 -15.1734
   -15.1642 -15.1598 -15.1385 -15.1056 -15.1042 -15.0974 -15.0800 -15.0739
   -15.0633 -15.0454 -15.0374 -15.0338 -15.0201 -15.0135 -15.0084 -14.9993
   -14.9967 -14.9921 -14.9916 -14.9842 -14.9759 -14.9665 -14.9644 -14.9608
   -14.9526 -14.9480 -14.9457 -14.9390 -14.9327 -14.9312 -14.9277 -14.9240
   -14.9136 -14.9084 -14.9036 -14.8972 -14.8942 -14.8877 -14.8846 -14.8793
   -14.8757 -14.8688 -14.8616 -14.8559 -14.8507 -14.8472 -14.8435 -14.8380
   -14.8361 -14.8227 -14.8223 -14.8191 -14.8083 -14.8075 -14.8009 -14.7994
   -14.7961 -14.7871 -14.7847 -14.7764 -14.7650 -14.7511 -14.7442 -14.7317
   -14.7145 -14.7043 -14.6932 -14.6755 -14.6657  -8.3442  -8.3353  -8.3194
    -6.4896  -6.3355  -6.3084  -6.1733  -5.9564  -5.9169  -5.8633  -5.8426
    -5.8061  -5.7790  -5.6698  -5.6443  -5.6016  -5.5776  -5.5721  -5.5590
    -5.5336  -5.5230  -5.4892  -5.4716  -5.4622  -5.4337  -5.4181  -5.3988
    -5.3745  -5.3312  -5.2874  -5.2757  -5.2628  -5.2433  -5.2026  -5.1980
    -5.1784  -5.1484  -5.1363  -5.1173  -5.0953  -5.0892  -5.0575  -5.0460
    -5.0324  -4.9997  -4.9742  -4.9595  -4.9324  -4.9223  -4.9046  -4.8950
    -4.8700  -4.8518  -4.8458  -4.8178  -4.7872  -4.7773  -4.7476  -4.7290
    -4.7065  -4.6701  -4.5334  -4.4736  -4.3703  -4.1694  -4.1255  -4.0625
     5.9348   6.1179   6.1564   6.1934   6.2055   6.3044   6.3437   6.3622
     6.3710   6.4062   6.4232   6.4974   6.5385   6.5588   6.5741   6.5803
     6.6042   6.6309   6.6521   6.6638   6.6839   6.7610   6.7813   6.8072
     6.8550   6.8648   6.9200   6.9336   6.9693   6.9767   6.9979   7.0090
     7.0234   7.0432   7.0471   7.0828   7.1113   7.1368   7.1824   7.1946
     7.2277   7.2503   7.2739   7.2924   7.3167   7.3232   7.3467   7.3804
     7.4143   7.4443   7.4518   7.4607   7.4688   7.4810   7.4944   7.5039
     7.5182   7.5725   7.5883   7.6221   7.6548   7.6625   7.6895   7.7369
     7.7884   7.8071   7.8202   7.8506   7.8672   7.8943   7.9465   7.9697
     8.0369   8.0487   8.0998   8.1115   8.1313   8.1630   8.1670   8.1914
     8.2157   8.2494   8.2622   8.2768   8.2870   8.3001   8.3266   8.3438
     8.3627   8.3821   8.3898   8.4104   8.4505   8.4560   8.5165   8.5743
     8.6250   8.6354   8.7467   8.7480   8.7977   8.8237   8.9699   8.9772
     9.1798   9.2235   9.2616   9.2765   9.3165   9.3302   9.3392   9.3556
     9.3640   9.3700   9.3891   9.4164   9.5683   9.5844   9.6136   9.6410
     9.6833   9.6937   9.7352   9.7632   9.7979   9.8136   9.8428   9.8661
     9.8773   9.8876   9.9203   9.9356   9.9450   9.9567   9.9670   9.9800
     9.9950   9.9973  10.0218  10.0231  10.0487  10.0635  10.0706  10.0749
    10.0841  10.0948  10.1071  10.1252  10.1346  10.1527  10.1619  10.1629
    10.1848  10.1934  10.2215  10.2241  10.2377  10.2731  10.2799  10.2905
    10.2943  10.3083  10.3122  10.3308  10.3428  10.3548  10.3780  10.4004
    10.4216  10.4263  10.4368  10.4493  10.4692  10.4753  10.4960  10.5153
    10.5431  10.5546  10.5966  10.6273  10.6437  10.6676  10.6924  10.7352
    10.7559  10.9024  10.9188  10.9516  11.0911  11.1087  11.1271  11.2734
    14.8662  14.9923  15.0264  15.0747  15.1133  15.1285  15.1786  15.2028
    15.2057  15.2136  15.2292  15.2381  15.2469  15.2601  15.2724  15.2897
    15.3056  15.3142  15.3194  15.3393  15.3452  15.3635  15.3714  15.3781
    15.3879  15.3957  15.4141  15.4212  15.4361  15.4406  15.4561  15.4818
    15.4902  15.4996  15.5060  15.5315  15.5642  15.5732  15.5805  15.5881
    15.6047  15.6196  15.6298  15.6349  15.6491  15.6517  15.6657  15.7031
    15.7068  15.7920  15.8222  15.8517  16.0882  16.0966  16.1158  16.1290
    16.1383  16.1468  16.1808  16.2242  16.2412  16.3208  17.1202  17.1815
    17.1955  17.2065  17.2139  17.2230  17.2246  17.2450  17.2464  17.2713
    17.2932

     occupation numbers 
     1.0000   1.0000   1.0000   1.0000   1.0000   1.0000   1.0000   1.0000
     1.0000   1.0000   1.0000   1.0000   1.0000   1.0000   1.0000   1.0000
     1.0000   1.0000   1.0000   1.0000   1.0000   1.0000   1.0000   1.0000
     1.0000   1.0000   1.0000   1.0000   1.0000   1.0000   1.0000   1.0000
     1.0000   1.0000   1.0000   1.0000   1.0000   1.0000   1.0000   1.0000
     1.0000   1.0000   1.0000   1.0000   1.0000   1.0000   1.0000   1.0000
     1.0000   1.0000   1.0000   1.0000   1.0000   1.0000   1.0000   1.0000
     1.0000   1.0000   1.0000   1.0000   1.0000   1.0000   1.0000   1.0000
     1.0000   1.0000   1.0000   1.0000   1.0000   1.0000   1.0000   1.0000
     1.0000   1.0000   1.0000   1.0000   1.0000   1.0000   1.0000   1.0000
     1.0000   1.0000   1.0000   1.0000   1.0000   1.0000   1.0000   1.0000
     1.0000   1.0000   1.0000   1.0000   1.0000   1.0000   1.0000   1.0000
     1.0000   1.0000   1.0000   1.0000   1.0000   1.0000   1.0000   1.0000
     1.0000   1.0000   1.0000   1.0000   1.0000   1.0000   1.0000   1.0000
     1.0000   1.0000   1.0000   1.0000   1.0000   1.0000   1.0000   1.0000
     1.0000   1.0000   1.0000   1.0000   1.0000   1.0000   1.0000   1.0000
     1.0000   1.0000   1.0000   1.0000   1.0000   1.0000   1.0000   1.0000
     1.0000   1.0000   1.0000   1.0000   1.0000   1.0000   1.0000   1.0000
     1.0000   1.0000   1.0000   1.0000   1.0000   1.0000   1.0000   1.0000
     1.0000   1.0000   1.0000   1.0000   1.0000   1.0000   1.0000   1.0000
     1.0000   1.0000   1.0000   1.0000   1.0000   1.0000   1.0000   1.0000
     1.0000   1.0000   1.0000   1.0000   1.0000   1.0000   1.0000   1.0000
     1.0000   1.0000   1.0000   1.0000   1.0000   1.0000   1.0000   1.0000
     1.0000   1.0000   1.0000   1.0000   1.0000   1.0000   1.0000   1.0000
     1.0000   1.0000   1.0000   1.0000   1.0000   1.0000   1.0000   1.0000
     1.0000   1.0000   1.0000   1.0000   1.0000   1.0000   1.0000   1.0000
     1.0000   1.0000   1.0000   1.0000   1.0000   1.0000   1.0000   1.0000
     1.0000   1.0000   1.0000   1.0000   1.0000   1.0000   1.0000   1.0000
     1.0000   1.0000   1.0000   1.0000   1.0000   1.0000   1.0000   1.0000
     1.0000   1.0000   1.0000   1.0000   1.0000   1.0000   1.0000   1.0000
     1.0000   1.0000   1.0000   1.0000   1.0000   1.0000   1.0000   1.0000
     1.0000   1.0000   1.0000   1.0000   1.0000   1.0000   1.0000   1.0000
     1.0000   1.0000   1.0000   1.0000   1.0000   1.0000   1.0000   1.0000
     1.0000   1.0000   1.0000   1.0000   1.0000   1.0000   1.0000   1.0000
     1.0000   1.0000   1.0000   1.0000   1.0000   1.0000   1.0000   1.0000
     1.0000   1.0000   1.0000   1.0000   1.0000   1.0000   1.0000   1.0000
     1.0000   1.0000   1.0000   1.0000   1.0000   1.0000   1.0000   1.0000
     1.0000   1.0000   1.0000   1.0000   1.0000   1.0000   1.0000   1.0000
     1.0000   1.0000   1.0000   1.0000   1.0000   1.0000   1.0000   1.0000
     1.0000   1.0000   1.0000   1.0000   1.0000   1.0000   1.0000   1.0000
     1.0000   1.0000   1.0000   1.0000   1.0000   1.0000   1.0000   1.0000
     1.0000   1.0000   1.0000   1.0000   1.0000   1.0000   1.0000   1.0000
     1.0000   1.0000   1.0000   1.0000   1.0000   1.0000   1.0000   1.0000
     1.0000   1.0000   1.0000   1.0000   1.0000   1.0000   1.0000   1.0000
     1.0000   1.0000   1.0000   1.0000   1.0000   1.0000   1.0000   1.0000
     1.0000   1.0000   1.0000   1.0000   1.0000   1.0000   1.0000   1.0000
     1.0000   1.0000   1.0000   1.0000   1.0000   1.0000   1.0000   1.0000
     1.0000   1.0000   1.0000   1.0000   0.8715   0.7788   0.6500   0.0040
     0.0000   0.0000   0.0000   0.0000   0.0000   0.0000   0.0000   0.0000
     0.0000   0.0000   0.0000   0.0000   0.0000   0.0000   0.0000   0.0000
     0.0000   0.0000   0.0000   0.0000   0.0000   0.0000   0.0000   0.0000
     0.0000   0.0000   0.0000   0.0000   0.0000   0.0000   0.0000   0.0000
     0.0000   0.0000   0.0000   0.0000   0.0000   0.0000   0.0000   0.0000
     0.0000   0.0000   0.0000   0.0000   0.0000   0.0000   0.0000   0.0000
     0.0000   0.0000   0.0000   0.0000   0.0000   0.0000   0.0000   0.0000
     0.0000   0.0000   0.0000   0.0000   0.0000   0.0000   0.0000   0.0000
     0.0000   0.0000   0.0000   0.0000   0.0000   0.0000   0.0000   0.0000
     0.0000

          k =-0.5000-0.5000-0.5000 ( 57016 PWs)   bands (ev):

   -37.1280 -37.0913 -36.9966 -36.9807 -36.9701 -36.9687 -36.9520 -36.9402
   -36.9270 -36.9050 -36.9000 -36.8912 -36.8818 -36.8561 -36.8476 -36.8465
   -36.8389 -36.8340 -36.8311 -36.8280 -36.8202 -36.8010 -36.7468 -36.7459
   -36.6926 -36.6451 -36.4313 -36.3972 -36.3951 -36.3813 -36.3133 -27.3615
   -15.4273 -15.4062 -15.4024 -15.3840 -15.3658 -15.3460 -15.3243 -15.3154
   -15.3131 -15.3056 -15.3005 -15.2918 -15.2794 -15.2514 -15.2406 -15.2306
   -15.2292 -15.2177 -15.2101 -15.2044 -15.1870 -15.1789 -15.1758 -15.1689
   -15.1174 -15.1072 -15.0996 -15.0953 -15.0833 -15.0756 -15.0649 -15.0626
   -15.0559 -15.0485 -15.0430 -15.0371 -15.0244 -15.0224 -15.0174 -15.0145
[...]
     atom   90 type  2   force =     0.00000000    0.00000000    0.00000000
     atom   91 type  1   force =     0.00000000    0.00000000    0.00000000
     atom   92 type  2   force =     0.00000000    0.00000000    0.00000000
     atom   93 type  2   force =     0.00000000    0.00000000    0.00000000
     atom   94 type  1   force =     0.00000000    0.00000000    0.00000000
     atom   95 type  2   force =     0.00000000    0.00000000    0.00000000
     atom   96 type  2   force =     0.00000000    0.00000000    0.00000000
     The SCF correction term to forces
     atom    1 type  1   force =     0.00002937   -0.00002163   -0.00006242
     atom    2 type  2   force =     0.00000154   -0.00001834   -0.00002029
     atom    3 type  2   force =    -0.00000774   -0.00000610    0.00000827
     atom    4 type  3   force =    -0.00003364   -0.00000838    0.00001114
     atom    5 type  2   force =    -0.00001938    0.00000555    0.00001558
     atom    6 type  2   force =     0.00000165   -0.00001017   -0.00000731
     atom    7 type  1   force =     0.00002550   -0.00001993   -0.00003233
     atom    8 type  2   force =     0.00000191   -0.00000183    0.00000544
     atom    9 type  2   force =     0.00000839    0.00001305   -0.00000717
     atom   10 type  1   force =    -0.00000630   -0.00000850   -0.00003147
     atom   11 type  2   force =    -0.00000526   -0.00000645   -0.00000239
     atom   12 type  2   force =    -0.00002612   -0.00001396    0.00001305
     atom   13 type  3   force =    -0.00004763   -0.00000406    0.00004872
     atom   14 type  2   force =    -0.00001443   -0.00003287    0.00001464
     atom   15 type  2   force =    -0.00001956    0.00000654   -0.00000152
     atom   16 type  1   force =     0.00001611   -0.00003496    0.00000182
     atom   17 type  2   force =     0.00000944   -0.00000654    0.00000503
     atom   18 type  2   force =    -0.00000218   -0.00001979    0.00000376
     atom   19 type  1   force =    -0.00002557   -0.00002829    0.00001203
     atom   20 type  2   force =    -0.00001938   -0.00001073   -0.00000819
     atom   21 type  2   force =    -0.00000018   -0.00000957    0.00002289
     atom   22 type  1   force =     0.00002321   -0.00000543    0.00005671
     atom   23 type  2   force =     0.00000368    0.00000182    0.00001220
     atom   24 type  2   force =    -0.00000253   -0.00001495   -0.00001073
     atom   25 type  1   force =     0.00003485    0.00002819   -0.00001504
     atom   26 type  2   force =    -0.00000134    0.00001034   -0.00001325
     atom   27 type  2   force =     0.00000441    0.00000498    0.00000517
     atom   28 type  4   force =    -0.00001766   -0.00002311    0.00000068
     atom   29 type  2   force =    -0.00001258   -0.00001042    0.00001943
     atom   30 type  2   force =    -0.00000448    0.00000605   -0.00001394
     atom   31 type  1   force =     0.00000349    0.00002065   -0.00002370
     atom   32 type  2   force =     0.00000473    0.00000802   -0.00000972
     atom   33 type  2   force =     0.00000359   -0.00000359   -0.00002043
     atom   34 type  3   force =    -0.00002370    0.00001879   -0.00002224
     atom   35 type  2   force =    -0.00001322   -0.00000101   -0.00001265
     atom   36 type  2   force =    -0.00001315    0.00000818   -0.00000055
     atom   37 type  1   force =    -0.00002580    0.00003003    0.00001553
     atom   38 type  2   force =     0.00000656    0.00001402    0.00000300
     atom   39 type  2   force =    -0.00003053    0.00001034    0.00000024
     atom   40 type  1   force =     0.00003093    0.00003677   -0.00000127
     atom   41 type  2   force =     0.00000793    0.00000819   -0.00000784
     atom   42 type  2   force =    -0.00000114    0.00000825   -0.00000355
     atom   43 type  1   force =    -0.00002467    0.00001562    0.00000194
     atom   44 type  2   force =    -0.00001798    0.00002456   -0.00001619
     atom   45 type  2   force =    -0.00000179   -0.00000950    0.00001551
     atom   46 type  3   force =    -0.00000437    0.00001063    0.00004875
     atom   47 type  2   force =    -0.00001636   -0.00000089    0.00001173
     atom   48 type  2   force =    -0.00000034    0.00002989   -0.00001282
     atom   49 type  1   force =    -0.00002147   -0.00001342   -0.00002138
     atom   50 type  2   force =     0.00000490   -0.00002421    0.00000374
     atom   51 type  2   force =    -0.00001498   -0.00000411    0.00000941
     atom   52 type  1   force =    -0.00000088   -0.00001495    0.00001201
     atom   53 type  2   force =     0.00000829   -0.00001421    0.00000988
     atom   54 type  2   force =     0.00000362   -0.00001587   -0.00000549
     atom   55 type  3   force =     0.00000530    0.00000675    0.00004327
     atom   56 type  2   force =    -0.00000649   -0.00001540   -0.00000695
     atom   57 type  2   force =    -0.00000656   -0.00001321    0.00001260
     atom   58 type  1   force =     0.00000933   -0.00002895   -0.00001810
     atom   59 type  2   force =     0.00000724    0.00000004    0.00001792
     atom   60 type  2   force =     0.00002450   -0.00002507   -0.00000922
     atom   61 type  1   force =     0.00000839   -0.00000196    0.00002303
     atom   62 type  2   force =     0.00001048   -0.00001232   -0.00002233
     atom   63 type  2   force =     0.00002141   -0.00001490   -0.00000450
     atom   64 type  1   force =    -0.00002459   -0.00003215   -0.00000984
     atom   65 type  2   force =    -0.00000592   -0.00000345   -0.00000899
     atom   66 type  2   force =     0.00001322   -0.00002741   -0.00002839
     atom   67 type  1   force =     0.00002559   -0.00000608   -0.00002008
     atom   68 type  2   force =     0.00001236   -0.00001919   -0.00002122
     atom   69 type  2   force =    -0.00000563   -0.00000055    0.00000106
     atom   70 type  1   force =     0.00002399   -0.00003873   -0.00001067
     atom   71 type  2   force =     0.00001614   -0.00001435   -0.00001152
     atom   72 type  2   force =     0.00000129   -0.00001194   -0.00002134
     atom   73 type  1   force =    -0.00002864    0.00001698    0.00000617
     atom   74 type  2   force =     0.00000502   -0.00000043    0.00001515
     atom   75 type  2   force =     0.00000123    0.00001584    0.00001317
     atom   76 type  1   force =     0.00000624    0.00000218    0.00000235
     atom   77 type  2   force =     0.00002149   -0.00000470    0.00000750
     atom   78 type  2   force =     0.00000922    0.00000918    0.00000723
     atom   79 type  1   force =     0.00000972    0.00003451    0.00004013
     atom   80 type  2   force =    -0.00000872    0.00001863    0.00001311
     atom   81 type  2   force =    -0.00000831   -0.00001095   -0.00000606
     atom   82 type  1   force =     0.00001669    0.00001552   -0.00000354
     atom   83 type  2   force =     0.00001390   -0.00000060    0.00000552
     atom   84 type  2   force =     0.00001139   -0.00000357    0.00000639
     atom   85 type  1   force =    -0.00000232    0.00001432    0.00000028
     atom   86 type  2   force =     0.00001277    0.00001311   -0.00000777
     atom   87 type  2   force =     0.00002447    0.00000808   -0.00001423
     atom   88 type  1   force =    -0.00002674    0.00003199   -0.00001218
     atom   89 type  2   force =    -0.00001152    0.00000917   -0.00002408
     atom   90 type  2   force =     0.00002155    0.00000193   -0.00000631
     atom   91 type  1   force =     0.00001490    0.00001480   -0.00002531
     atom   92 type  2   force =     0.00001901    0.00001798   -0.00001387
     atom   93 type  2   force =    -0.00000809    0.00000795   -0.00000361
     atom   94 type  1   force =     0.00002259    0.00001120   -0.00000559
     atom   95 type  2   force =     0.00000727    0.00000860   -0.00000868
     atom   96 type  2   force =    -0.00000282    0.00001955    0.00000307

     Total force =     0.005168     Total SCF correction =     0.000289
     Energy error            =      9.7E-05 Ry
     Gradient error          =      9.6E-04 Ry/Bohr

     bfgs converged in   9 scf cycles and   8 bfgs steps
     (criteria: energy <  1.0E-04 Ry, force <  1.0E-03 Ry/Bohr)

     End of BFGS Geometry Optimization

     Final energy             =  -11735.0683989758 Ry

     File ./tmp/calc_9Sc1YSZ_Perfect.bfgs deleted, as requested
Begin final coordinates

ATOMIC_POSITIONS (angstrom)
Zr               0.0040203088       -0.0066419534        0.0438913329
O                1.2933921923        1.2893749338        1.2723948121
O                3.8541576966        3.8343626579        3.8447300748
Sc              -0.0092383761        2.5338393143        2.5726803195
O                1.2935144270        3.8379510964        3.8495691480
O                3.8501343032        1.2866585773        1.2801900280
Zr               2.5193934607       -0.0271909507        2.5900349589
O                3.8510060291        1.2826908538        3.8458400678
O                1.2882181443        3.8351561161        1.2664195876
Zr               2.5420211978        2.5505847629        0.0252209084
O                3.8481547807        3.8339461582        1.2778349083
O                1.3074763208        1.3008199304        3.8401759343
Sc               0.0040175656       -0.0067011505        5.0933770915
O                1.2954132234        1.3004764135        6.4235020736
O                3.8436458587        3.8440775380        8.9700674471
Zr               0.0028602439        2.5403164194        7.6745887260
O                1.2847499669        3.8321139100        8.9589491454
O                3.8480888735        1.2796371263        6.4035242528
Zr               2.5400753729       -0.0402650998        7.6686449617
O                3.8435947982        1.2851885229        8.9706464281
O                1.2787658038        3.8426720150        6.4043861210
Zr               2.5244947977        2.5395293054        5.0970928096
O                3.8415784686        3.8400107110        6.4077367193
O                1.2791598917        1.2802934741        8.9694696766
Zr               0.0230003094        5.1296852557        0.0157381979
O                1.3281003856        6.3457131786        1.2406024339
O                3.8703072710        8.9794484132        3.8332005558
Y                0.0112251492        7.7074560326        2.5755095471
O                1.3457141974        9.0232803886        3.8839911084
O                3.8723463192        6.3928965197        1.2884471120
Zr               2.5437883951        5.1466646681        2.5641337130
O                3.8688236322        6.3955864101        3.8309359995
O                1.3251618007        9.0336558129        1.2363410505
Sc               2.5587052769        7.6929886725        0.0045042675
O                3.8610322164        8.9763910687        1.2920355989
O                1.3262721566        6.3403515830        3.8903293135
Zr               0.0208622646        5.1288912708        5.1056631042
O                1.2667153950        6.3928606215        6.4268784128
O                3.8578914951        8.9764303804        8.9593435716
Zr               0.0314453145        7.7048567774        7.6721406086
O                1.2705370617        8.9727753107        8.9545908809
O                3.8506672877        6.3921464600        6.4141952585
Zr               2.5527606411        5.1553938505        7.6823031841
O                3.8507174874        6.3951423658        8.9579082611
O                1.2861285642        8.9654288285        6.4396029937
Sc               2.5470997555        7.7036188310        5.1191462408
O                3.8618516848        8.9755835795        6.4135611432
O                1.2680219373        6.3898960971        8.9493950448
Zr               5.1161296991       -0.0222288640        0.0236766445
O                6.3942213751        1.2970647262        1.2749599653
O                8.9651903315        3.8476600496        3.8516122882
Zr               5.1374394494        2.5422040898        2.5677726658
O                6.4099932847        3.8443985104        3.8402986828
O                8.9757842423        1.2924965291        1.2607508417
Sc               7.7213747174        0.0104077870        2.5822658172
O                8.9590240541        1.3064918014        3.8589016672
O                6.4011925160        3.8473527234        1.2840103253
Zr               7.7134441808        2.5358279246        0.0420329313
O                8.9568074265        3.8411562597        1.2750776822
O                6.3848606245        1.2940493669        3.8610369167
Zr               5.1232059783       -0.0208468187        5.1056195023
O                6.4061353116        1.2763717528        6.4135358980
O                8.9697624127        3.8419838830        8.9640860867
Zr               5.1226847753        2.5572419807        7.6847952679
O                6.4051769043        3.8384971180        8.9697542533
O                8.9563762721        1.2883521622        6.4330999061
Zr               7.7050706670       -0.0080697891        7.6769287062
O                8.9667065228        1.2843942373        8.9666459991
O                6.4019919516        3.8450479935        6.4098694159
Zr               7.7349357565        2.5202914209        5.0847856103
O                8.9705463725        3.8381145757        6.4106110451
O                6.4072807178        1.2728832021        8.9697735808
Zr               5.1081165251        5.1412220741        0.0039353683
O                6.4034980411        6.4058176667        1.2797439898
O                8.9080003512        9.0009985591        3.9059611017
Zr               5.1089356387        7.7023812632        2.5610512512
O                6.3781636782        8.9540179463        3.8586229392
O                8.9232342629        6.3560314911        1.2310846936
Zr               7.7083862201        5.1088534816        2.5618415037
O                8.9198627194        6.3537545325        3.8913235042
O                6.3845482461        8.9545596377        1.2686557825
Zr               7.6957921084        7.7106089224        0.0199384051
O                8.9246739483        9.0061177974        1.2158842913
O                6.4009344461        6.4045099274        3.8379355651
Zr               5.1129882427        5.1429253000        5.1129838291
O                6.4012291736        6.4031720750        6.4086080247
O                8.9699520286        8.9723851217        8.9579287600
Zr               5.0930047093        7.6869749670        7.6848067649
O                6.4103971057        8.9614576798        8.9642098067
O                8.9682915810        6.4003525984        6.4133764387
Zr               7.6943092698        5.1262182549        7.6851779694
O                8.9640746273        6.4123033154        8.9552199351
O                6.4069995701        8.9704955160        6.4113960966
Zr               7.7122566023        7.7264094515        5.1019266373
O                8.9543051116        8.9504573022        6.4409910871
O                6.4020818170        6.3984772412        8.9671439930
End final coordinates


     Message from routine punch:
     Nothing written, as per user request (disk_io='none')
 
     init_run     :     38.76s CPU     24.13s WALL (       1 calls)
     electrons    :   5307.07s CPU   3359.93s WALL (       9 calls)
     update_pot   :    191.93s CPU     75.12s WALL (       8 calls)
     forces       :     45.21s CPU     36.68s WALL (       9 calls)

     Called by init_run:
     wfcinit      :      6.34s CPU      8.39s WALL (       1 calls)
     wfcinit:atom :      0.11s CPU      0.11s WALL (       8 calls)
     wfcinit:wfcr :      4.19s CPU      4.25s WALL (       8 calls)
     potinit      :     29.63s CPU     12.60s WALL (       1 calls)
     hinit0       :      2.08s CPU      1.55s WALL (       1 calls)

     Called by electrons:
     c_bands      :   1735.66s CPU   1731.23s WALL (     142 calls)
     sum_band     :    335.64s CPU    334.60s WALL (     142 calls)
     v_of_rho     :     10.12s CPU      9.00s WALL (     147 calls)
     v_h          :      5.29s CPU      4.15s WALL (     147 calls)
     v_xc         :      5.13s CPU      5.15s WALL (     156 calls)
     newd         :     25.48s CPU     25.45s WALL (     147 calls)
                                       25.45s GPU  (     147 calls)
     PAW_pot      :   3556.32s CPU   1386.86s WALL (     155 calls)
     mix_rho      :     14.06s CPU     14.63s WALL (     142 calls)

     Called by c_bands:
     init_us_2    :     24.51s CPU     24.47s WALL (    2416 calls)
     cegterg      :   1386.31s CPU   1384.65s WALL (    1150 calls)

     Called by sum_band:
     sum_band:wei :      0.21s CPU      0.22s WALL (     142 calls)
                                        0.22s GPU  (     142 calls)
     sum_band:loo :    299.97s CPU    298.93s WALL (     142 calls)
                                      298.93s GPU  (     142 calls)
     sum_band:buf :    146.81s CPU    146.82s WALL (    1136 calls)
                                      146.80s GPU  (    1136 calls)
     sum_band:ini :      9.15s CPU      9.14s WALL (    1136 calls)
                                        9.13s GPU  (    1136 calls)
     sum_band:cal :    258.94s CPU    103.26s WALL (    1200 calls)
                                       38.10s GPU  (    1136 calls)
     sum_band:bec :      5.27s CPU      4.87s WALL (    1200 calls)
                                        4.68s GPU  (    1136 calls)
     addusdens    :     31.87s CPU     31.89s WALL (     142 calls)
                                       31.89s GPU  (     142 calls)
     addusd:skk   :      1.20s CPU      1.21s WALL (     568 calls)
                                        1.21s GPU  (     568 calls)

     Called by *egterg:
     cdiaghg      :    116.25s CPU    116.44s WALL (    7383 calls)
                                      116.40s GPU  (    7383 calls)
     cegterg:over :    184.13s CPU    184.16s WALL (    6329 calls)
     cegterg:upda :     75.86s CPU     75.85s WALL (    6329 calls)
     cegterg:last :    162.08s CPU    162.06s WALL (    2742 calls)
     h_psi        :    738.79s CPU    737.18s WALL (    7487 calls)
                                      735.52s GPU  (    7487 calls)
     s_psi        :     23.99s CPU     24.04s WALL (    7487 calls)
     g_psi        :      0.07s CPU      7.47s WALL (    6329 calls)
                                        7.43s GPU  (    6329 calls)

     Called by h_psi:
     h_psi:calbec :      0.60s CPU    107.58s WALL (    7487 calls)
                                      107.53s GPU  (    7487 calls)
     vloc_psi     :    499.52s CPU    497.55s WALL (    7487 calls)
                                      497.51s GPU  (    7487 calls)
     add_vuspsi   :     20.00s CPU    125.13s WALL (    7487 calls)
                                      125.08s GPU  (    7487 calls)

     General routines
     calbec       :    259.16s CPU     65.50s WALL (    8975 calls)
     fft          :     14.20s CPU      5.88s WALL (    2004 calls)
                                        0.84s GPU  (    1857 calls)
     ffts         :      3.70s CPU      1.56s WALL (     289 calls)
                                        0.03s GPU  (     142 calls)
     fftw         :      4.27s CPU    401.06s WALL (  216786 calls)
                                      400.16s GPU  (  216786 calls)
     interpolate  :     21.38s CPU      9.78s WALL (     147 calls)
 
     Parallel routines

     PAW routines
     PAW_pot      :   3556.32s CPU   1386.86s WALL (     155 calls)
 
     PWSCF        :      1h40m CPU      1h 0m WALL

 
   This run was terminated on:  20: 9:18  27Jan2026            

=------------------------------------------------------------------------------=
   JOB DONE.
=------------------------------------------------------------------------------=
Warning: ieee_divide_by_zero is signaling
Warning: ieee_inexact is signaling
FORTRAN STOP
